    2    2    1    1
  0.2024040E+02  0.3854086E-09  0.3854086E-09  0.3854086E-09  0.5000000E-15
  1.000000000000000E-004
  CAR 
 unknown system                          
     18    199    144
 
  0.0000000E+00  0.0000000E+00  0.0000000E+00  0.1953125E-02
    1      -13.760339   1.000000
    2      -13.760337   1.000000
    3      -13.760287   1.000000
    4      -13.659495   1.000000
    5      -13.659494   1.000000
    6      -10.518365   1.000000
    7        3.266467   1.000000
    8        3.266484   1.000000
    9        3.266487   1.000000
   10        6.091636   0.000000
   11        8.054592   0.000000
   12        8.054593   0.000000
   13        8.054777   0.000000
   14       13.163867   0.000000
   15       14.186663   0.000000
   16       14.186663   0.000000
   17       16.827377   0.000000
   18       16.827378   0.000000
   19       16.827401   0.000000
   20       20.056411   0.000000
   21       29.887831   0.000000
   22       29.888003   0.000000
   23       29.888005   0.000000
   24       32.351712   0.000000
   25       32.351823   0.000000
   26       32.351823   0.000000
   27       32.844819   0.000000
   28       32.844819   0.000000
   29       34.437502   0.000000
   30       34.437554   0.000000
   31       34.437558   0.000000
   32       42.837403   0.000000
   33       44.665791   0.000000
   34       44.665793   0.000000
   35       46.134680   0.000000
   36       46.134865   0.000000
   37       46.134906   0.000000
   38       48.001650   0.000000
   39       48.001698   0.000000
   40       48.001703   0.000000
   41       49.257433   0.000000
   42       49.837290   0.000000
   43       49.837318   0.000000
   44       49.837388   0.000000
   45       50.218051   0.000000
   46       50.218131   0.000000
   47       50.218147   0.000000
   48       51.039384   0.000000
   49       51.039412   0.000000
   50       51.039442   0.000000
   51       51.576947   0.000000
   52       51.576954   0.000000
   53       51.576975   0.000000
   54       53.713619   0.000000
   55       53.713621   0.000000
   56       55.126794   0.000000
   57       57.743551   0.000000
   58       57.743597   0.000000
   59       57.743936   0.000000
   60       58.140044   0.000000
   61       58.140211   0.000000
   62       58.140226   0.000000
   63       60.016551   0.000000
   64       64.906835   0.000000
   65       72.845846   0.000000
   66       72.846224   0.000000
   67       74.674581   0.000000
   68       74.674607   0.000000
   69       74.674641   0.000000
   70       77.633810   0.000000
   71       78.402692   0.000000
   72       78.402936   0.000000
   73       78.403336   0.000000
   74       82.082926   0.000000
   75       82.084588   0.000000
   76       82.085156   0.000000
   77       85.321611   0.000000
   78       85.321875   0.000000
   79       88.062287   0.000000
   80       88.068293   0.000000
   81       88.068731   0.000000
   82       88.069242   0.000000
   83       88.074225   0.000000
   84       88.077539   0.000000
   85       90.443846   0.000000
   86       90.445069   0.000000
   87       90.450028   0.000000
   88       91.223673   0.000000
   89       91.224286   0.000000
   90       91.226371   0.000000
   91       93.035034   0.000000
   92       93.035793   0.000000
   93       93.037598   0.000000
   94       95.103817   0.000000
   95       95.104102   0.000000
   96       95.116783   0.000000
   97       95.228622   0.000000
   98       95.228943   0.000000
   99       95.234206   0.000000
  100       96.517382   0.000000
  101       96.519638   0.000000
  102       96.534179   0.000000
  103       97.226753   0.000000
  104       97.455399   0.000000
  105       97.461763   0.000000
  106       98.070993   0.000000
  107       98.722244   0.000000
  108       98.729481   0.000000
  109       98.765028   0.000000
  110       99.078187   0.000000
  111       99.096512   0.000000
  112       99.097517   0.000000
  113       99.176883   0.000000
  114       99.249363   0.000000
  115       99.468501   0.000000
  116       99.487782   0.000000
  117       99.625917   0.000000
  118      107.389510   0.000000
  119      111.461155   0.000000
  120      112.199037   0.000000
  121      112.614702   0.000000
  122      113.863265   0.000000
  123      114.344823   0.000000
  124      114.590932   0.000000
  125      114.937983   0.000000
  126      115.104942   0.000000
  127      115.241482   0.000000
  128      115.996053   0.000000
  129      116.389146   0.000000
  130      116.987886   0.000000
  131      117.471089   0.000000
  132      118.283968   0.000000
  133      119.385669   0.000000
  134      120.278970   0.000000
  135      121.013493   0.000000
  136      121.407970   0.000000
  137      122.937566   0.000000
  138      124.562149   0.000000
  139      125.647447   0.000000
  140      127.515052   0.000000
  141      129.595895   0.000000
  142      129.975125   0.000000
  143      130.644047   0.000000
  144      131.218760   0.000000
 
  0.1250000E+00  0.0000000E+00  0.0000000E+00  0.1562500E-01
    1      -13.769275   1.000000
    2      -13.756011   1.000000
    3      -13.755945   1.000000
    4      -13.659576   1.000000
    5      -13.659553   1.000000
    6      -10.301668   1.000000
    7        1.589801   1.000000
    8        3.024009   1.000000
    9        3.024011   1.000000
   10        6.678398   0.000000
   11        8.431438   0.000000
   12        8.431581   0.000000
   13        8.660470   0.000000
   14       13.499610   0.000000
   15       13.499632   0.000000
   16       14.108875   0.000000
   17       16.125831   0.000000
   18       18.255881   0.000000
   19       18.255902   0.000000
   20       21.588713   0.000000
   21       27.554629   0.000000
   22       27.724245   0.000000
   23       27.724477   0.000000
   24       31.629117   0.000000
   25       31.629869   0.000000
   26       33.092412   0.000000
   27       33.092477   0.000000
   28       34.028608   0.000000
   29       34.627401   0.000000
   30       37.369462   0.000000
   31       37.370016   0.000000
   32       41.990174   0.000000
   33       42.580482   0.000000
   34       42.580484   0.000000
   35       43.968521   0.000000
   36       44.918560   0.000000
   37       44.918894   0.000000
   38       46.556023   0.000000
   39       46.556032   0.000000
   40       47.168427   0.000000
   41       47.396120   0.000000
   42       49.124807   0.000000
   43       49.125007   0.000000
   44       49.400348   0.000000
   45       49.916860   0.000000
   46       49.916890   0.000000
   47       50.229912   0.000000
   48       52.153557   0.000000
   49       52.323167   0.000000
   50       52.323399   0.000000
   51       53.568397   0.000000
   52       53.838877   0.000000
   53       53.838904   0.000000
   54       54.919088   0.000000
   55       56.147729   0.000000
   56       56.147805   0.000000
   57       56.806732   0.000000
   58       57.697734   0.000000
   59       57.697806   0.000000
   60       59.970935   0.000000
   61       60.885225   0.000000
   62       60.885347   0.000000
   63       63.874742   0.000000
   64       67.052313   0.000000
   65       69.501369   0.000000
   66       69.501414   0.000000
   67       71.458837   0.000000
   68       74.651672   0.000000
   69       74.652044   0.000000
   70       76.320350   0.000000
   71       78.287327   0.000000
   72       78.287906   0.000000
   73       81.356693   0.000000
   74       81.800372   0.000000
   75       81.868075   0.000000
   76       81.870207   0.000000
   77       83.277273   0.000000
   78       83.278763   0.000000
   79       86.089694   0.000000
   80       86.227721   0.000000
   81       86.227863   0.000000
   82       87.499953   0.000000
   83       87.501167   0.000000
   84       88.110128   0.000000
   85       88.395865   0.000000
   86       89.470166   0.000000
   87       90.434684   0.000000
   88       90.434833   0.000000
   89       90.962478   0.000000
   90       90.972350   0.000000
   91       90.984401   0.000000
   92       92.692085   0.000000
   93       92.696481   0.000000
   94       92.982909   0.000000
   95       93.109774   0.000000
   96       93.109811   0.000000
   97       94.871788   0.000000
   98       95.304948   0.000000
   99       95.311192   0.000000
  100       95.779476   0.000000
  101       96.024820   0.000000
  102       96.042306   0.000000
  103       97.299888   0.000000
  104       98.205601   0.000000
  105       98.210565   0.000000
  106       99.865200   0.000000
  107       99.972341   0.000000
  108      100.046127   0.000000
  109      100.941125   0.000000
  110      101.338297   0.000000
  111      101.423265   0.000000
  112      102.759523   0.000000
  113      102.892417   0.000000
  114      103.206990   0.000000
  115      105.133904   0.000000
  116      105.896939   0.000000
  117      106.152209   0.000000
  118      106.668461   0.000000
  119      106.891412   0.000000
  120      107.865120   0.000000
  121      109.912809   0.000000
  122      110.635765   0.000000
  123      110.956560   0.000000
  124      112.024046   0.000000
  125      114.008101   0.000000
  126      114.594413   0.000000
  127      115.278165   0.000000
  128      116.536421   0.000000
  129      116.973825   0.000000
  130      118.232097   0.000000
  131      118.563997   0.000000
  132      119.706721   0.000000
  133      120.637058   0.000000
  134      121.381228   0.000000
  135      122.599155   0.000000
  136      123.528460   0.000000
  137      124.591191   0.000000
  138      125.725929   0.000000
  139      126.264236   0.000000
  140      127.636334   0.000000
  141      128.276605   0.000000
  142      129.826728   0.000000
  143      130.721338   0.000000
  144      132.182297   0.000000
 
  0.2500000E+00  0.0000000E+00  0.0000000E+00  0.1562500E-01
    1      -13.790203   1.000000
    2      -13.746719   1.000000
    3      -13.746591   1.000000
    4      -13.658716   1.000000
    5      -13.658632   1.000000
    6       -9.683667   1.000000
    7       -0.903227   1.000000
    8        2.555453   1.000000
    9        2.555478   1.000000
   10        6.329092   0.000000
   11        8.968333   0.000000
   12        8.968401   0.000000
   13       10.701962   0.000000
   14       13.313545   0.000000
   15       13.313626   0.000000
   16       14.232333   0.000000
   17       17.618959   0.000000
   18       20.893039   0.000000
   19       20.893084   0.000000
   20       23.838224   0.000000
   21       24.138070   0.000000
   22       24.138236   0.000000
   23       25.058829   0.000000
   24       31.731839   0.000000
   25       31.732754   0.000000
   26       33.595273   0.000000
   27       33.595339   0.000000
   28       34.439933   0.000000
   29       35.155248   0.000000
   30       37.177788   0.000000
   31       37.178164   0.000000
   32       38.795643   0.000000
   33       42.042821   0.000000
   34       42.043035   0.000000
   35       43.069825   0.000000
   36       43.239436   0.000000
   37       43.239560   0.000000
   38       44.564983   0.000000
   39       44.609237   0.000000
   40       44.609796   0.000000
   41       44.664455   0.000000
   42       48.583325   0.000000
   43       48.661485   0.000000
   44       48.661706   0.000000
   45       49.733327   0.000000
   46       50.587224   0.000000
   47       50.587481   0.000000
   48       51.896753   0.000000
   49       54.313645   0.000000
   50       54.313844   0.000000
   51       56.036468   0.000000
   52       56.036507   0.000000
   53       56.186298   0.000000
   54       58.721900   0.000000
   55       58.721948   0.000000
   56       59.333230   0.000000
   57       59.485157   0.000000
   58       62.571811   0.000000
   59       63.031765   0.000000
   60       63.031771   0.000000
   61       64.921579   0.000000
   62       64.921722   0.000000
   63       65.725643   0.000000
   64       65.725764   0.000000
   65       66.726032   0.000000
   66       68.179815   0.000000
   67       69.360629   0.000000
   68       69.360630   0.000000
   69       71.603680   0.000000
   70       74.623055   0.000000
   71       76.281543   0.000000
   72       76.281648   0.000000
   73       79.512768   0.000000
   74       79.515165   0.000000
   75       80.207329   0.000000
   76       80.597122   0.000000
   77       81.517085   0.000000
   78       81.519059   0.000000
   79       83.358497   0.000000
   80       83.890077   0.000000
   81       83.895963   0.000000
   82       83.915221   0.000000
   83       86.150700   0.000000
   84       86.152092   0.000000
   85       87.027171   0.000000
   86       87.564146   0.000000
   87       87.565170   0.000000
   88       89.273872   0.000000
   89       90.107680   0.000000
   90       90.814761   0.000000
   91       90.815572   0.000000
   92       92.817158   0.000000
   93       93.138828   0.000000
   94       93.142868   0.000000
   95       93.889009   0.000000
   96       93.891016   0.000000
   97       95.125182   0.000000
   98       95.225813   0.000000
   99       95.232224   0.000000
  100       95.281676   0.000000
  101       97.394694   0.000000
  102       97.398211   0.000000
  103       97.696444   0.000000
  104       98.792313   0.000000
  105       98.793368   0.000000
  106      100.748192   0.000000
  107      101.537524   0.000000
  108      101.722114   0.000000
  109      102.815938   0.000000
  110      103.067285   0.000000
  111      103.137920   0.000000
  112      105.429040   0.000000
  113      106.446985   0.000000
  114      106.527594   0.000000
  115      106.956679   0.000000
  116      107.599848   0.000000
  117      107.925080   0.000000
  118      108.792238   0.000000
  119      109.365356   0.000000
  120      109.525497   0.000000
  121      110.628561   0.000000
  122      111.252972   0.000000
  123      111.802848   0.000000
  124      113.423857   0.000000
  125      113.817310   0.000000
  126      114.109791   0.000000
  127      114.735332   0.000000
  128      115.457944   0.000000
  129      115.619784   0.000000
  130      116.818518   0.000000
  131      116.896663   0.000000
  132      118.190139   0.000000
  133      118.834179   0.000000
  134      119.669888   0.000000
  135      120.793916   0.000000
  136      121.433028   0.000000
  137      123.007841   0.000000
  138      124.463252   0.000000
  139      125.253801   0.000000
  140      126.015510   0.000000
  141      126.970713   0.000000
  142      128.765812   0.000000
  143      131.117351   0.000000
  144      132.691950   0.000000
 
  0.3750000E+00  0.0000000E+00  0.0000000E+00  0.1562500E-01
    1      -13.810288   1.000000
    2      -13.739271   1.000000
    3      -13.739078   1.000000
    4      -13.655855   1.000000
    5      -13.655706   1.000000
    6       -8.818203   1.000000
    7       -3.013935   1.000000
    8        2.186054   1.000000
    9        2.186095   1.000000
   10        5.940850   0.000000
   11        8.990276   0.000000
   12        8.990287   0.000000
   13       12.362307   0.000000
   14       14.259116   0.000000
   15       14.633329   0.000000
   16       14.633478   0.000000
   17       19.714858   0.000000
   18       20.419420   0.000000
   19       20.419597   0.000000
   20       22.495764   0.000000
   21       24.436713   0.000000
   22       24.436772   0.000000
   23       28.216684   0.000000
   24       31.281112   0.000000
   25       31.479742   0.000000
   26       31.480420   0.000000
   27       33.336723   0.000000
   28       33.336826   0.000000
   29       34.715566   0.000000
   30       34.715644   0.000000
   31       35.861216   0.000000
   32       37.430279   0.000000
   33       39.784083   0.000000
   34       40.559662   0.000000
   35       40.559889   0.000000
   36       41.709791   0.000000
   37       41.709820   0.000000
   38       42.464934   0.000000
   39       43.153106   0.000000
   40       47.867392   0.000000
   41       47.867576   0.000000
   42       48.006190   0.000000
   43       48.863299   0.000000
   44       48.863355   0.000000
   45       50.616177   0.000000
   46       50.616181   0.000000
   47       51.546551   0.000000
   48       53.431993   0.000000
   49       56.043283   0.000000
   50       56.043288   0.000000
   51       57.910469   0.000000
   52       59.564924   0.000000
   53       59.565132   0.000000
   54       60.826325   0.000000
   55       61.065628   0.000000
   56       61.065914   0.000000
   57       63.393604   0.000000
   58       63.393900   0.000000
   59       64.233435   0.000000
   60       64.341644   0.000000
   61       64.341726   0.000000
   62       64.580575   0.000000
   63       66.571815   0.000000
   64       68.065001   0.000000
   65       68.065040   0.000000
   66       68.141448   0.000000
   67       70.255854   0.000000
   68       70.255868   0.000000
   69       71.816636   0.000000
   70       71.816672   0.000000
   71       72.790123   0.000000
   72       74.802022   0.000000
   73       74.802353   0.000000
   74       75.261084   0.000000
   75       75.876084   0.000000
   76       78.208094   0.000000
   77       78.394410   0.000000
   78       78.395247   0.000000
   79       81.232344   0.000000
   80       81.237357   0.000000
   81       81.826287   0.000000
   82       82.292115   0.000000
   83       85.979600   0.000000
   84       85.980119   0.000000
   85       87.174199   0.000000
   86       87.175680   0.000000
   87       87.723513   0.000000
   88       89.851296   0.000000
   89       90.162982   0.000000
   90       90.482320   0.000000
   91       90.483504   0.000000
   92       91.731986   0.000000
   93       91.732606   0.000000
   94       92.699714   0.000000
   95       93.205230   0.000000
   96       93.205973   0.000000
   97       95.490758   0.000000
   98       95.747158   0.000000
   99       96.422133   0.000000
  100       96.423937   0.000000
  101       96.964759   0.000000
  102       97.240111   0.000000
  103       97.249733   0.000000
  104      100.859548   0.000000
  105      101.356036   0.000000
  106      101.679731   0.000000
  107      101.810491   0.000000
  108      102.563538   0.000000
  109      102.636001   0.000000
  110      103.037732   0.000000
  111      105.332853   0.000000
  112      105.567646   0.000000
  113      106.136168   0.000000
  114      106.447201   0.000000
  115      106.753936   0.000000
  116      107.574905   0.000000
  117      107.934157   0.000000
  118      108.165762   0.000000
  119      108.647200   0.000000
  120      109.111472   0.000000
  121      109.574023   0.000000
  122      112.122403   0.000000
  123      113.455487   0.000000
  124      114.271691   0.000000
  125      114.929398   0.000000
  126      115.510501   0.000000
  127      116.512501   0.000000
  128      116.941603   0.000000
  129      117.131174   0.000000
  130      118.024456   0.000000
  131      118.723271   0.000000
  132      119.540170   0.000000
  133      119.840544   0.000000
  134      121.262722   0.000000
  135      121.579186   0.000000
  136      122.356346   0.000000
  137      124.382418   0.000000
  138      125.096010   0.000000
  139      125.838161   0.000000
  140      127.271290   0.000000
  141      128.593064   0.000000
  142      129.388863   0.000000
  143      131.197705   0.000000
  144      134.053086   0.000000
 
  0.5000000E+00  0.0000000E+00  0.0000000E+00  0.7812500E-02
    1      -13.818472   1.000000
    2      -13.736848   1.000000
    3      -13.736628   1.000000
    4      -13.654031   1.000000
    5      -13.653856   1.000000
    6       -8.290174   1.000000
    7       -3.970808   1.000000
    8        2.052123   1.000000
    9        2.052170   1.000000
   10        5.801567   0.000000
   11        8.902876   0.000000
   12        8.902881   0.000000
   13       12.538025   0.000000
   14       15.449089   0.000000
   15       16.298855   0.000000
   16       16.299073   0.000000
   17       18.194321   0.000000
   18       18.194412   0.000000
   19       18.444873   0.000000
   20       24.996455   0.000000
   21       27.184854   0.000000
   22       27.185057   0.000000
   23       27.309786   0.000000
   24       29.222488   0.000000
   25       29.222560   0.000000
   26       32.760478   0.000000
   27       32.761240   0.000000
   28       32.847171   0.000000
   29       33.420853   0.000000
   30       34.984023   0.000000
   31       34.984157   0.000000
   32       36.254002   0.000000
   33       39.708715   0.000000
   34       39.708980   0.000000
   35       39.781976   0.000000
   36       41.148151   0.000000
   37       41.148196   0.000000
   38       41.605416   0.000000
   39       42.452941   0.000000
   40       47.799916   0.000000
   41       48.352827   0.000000
   42       48.353148   0.000000
   43       49.233157   0.000000
   44       49.233190   0.000000
   45       51.875366   0.000000
   46       52.680972   0.000000
   47       52.681967   0.000000
   48       56.697549   0.000000
   49       57.497200   0.000000
   50       57.497292   0.000000
   51       57.817982   0.000000
   52       58.735146   0.000000
   53       58.735384   0.000000
   54       59.234350   0.000000
   55       60.119250   0.000000
   56       60.119253   0.000000
   57       63.500193   0.000000
   58       63.500326   0.000000
   59       64.470360   0.000000
   60       66.652328   0.000000
   61       66.652531   0.000000
   62       67.019891   0.000000
   63       68.259863   0.000000
   64       68.259985   0.000000
   65       69.221334   0.000000
   66       69.495372   0.000000
   67       69.495547   0.000000
   68       69.954087   0.000000
   69       70.184742   0.000000
   70       72.971388   0.000000
   71       72.971697   0.000000
   72       73.315344   0.000000
   73       73.448829   0.000000
   74       73.449097   0.000000
   75       74.136492   0.000000
   76       77.036374   0.000000
   77       77.532846   0.000000
   78       77.533187   0.000000
   79       79.809841   0.000000
   80       79.810707   0.000000
   81       82.033283   0.000000
   82       82.126255   0.000000
   83       82.130386   0.000000
   84       83.236656   0.000000
   85       86.254916   0.000000
   86       86.255738   0.000000
   87       88.163473   0.000000
   88       90.001967   0.000000
   89       90.419253   0.000000
   90       90.422368   0.000000
   91       91.150696   0.000000
   92       92.318631   0.000000
   93       92.611408   0.000000
   94       92.612292   0.000000
   95       95.125161   0.000000
   96       95.128985   0.000000
   97       95.386188   0.000000
   98       96.790602   0.000000
   99       96.975756   0.000000
  100       97.312453   0.000000
  101       97.335649   0.000000
  102       98.804109   0.000000
  103       98.825581   0.000000
  104       99.201677   0.000000
  105       99.520487   0.000000
  106       99.580864   0.000000
  107       99.605516   0.000000
  108      100.574260   0.000000
  109      102.193798   0.000000
  110      102.298480   0.000000
  111      102.660969   0.000000
  112      102.699470   0.000000
  113      106.998648   0.000000
  114      108.187815   0.000000
  115      108.658960   0.000000
  116      108.921481   0.000000
  117      109.377221   0.000000
  118      109.820689   0.000000
  119      110.204026   0.000000
  120      110.453448   0.000000
  121      110.830147   0.000000
  122      111.140969   0.000000
  123      112.117543   0.000000
  124      112.411219   0.000000
  125      113.227865   0.000000
  126      114.728068   0.000000
  127      115.223609   0.000000
  128      117.103341   0.000000
  129      117.917344   0.000000
  130      119.050645   0.000000
  131      119.722639   0.000000
  132      120.425010   0.000000
  133      121.233253   0.000000
  134      122.255018   0.000000
  135      122.990715   0.000000
  136      123.653027   0.000000
  137      125.683639   0.000000
  138      127.034573   0.000000
  139      127.642574   0.000000
  140      129.119106   0.000000
  141      130.096187   0.000000
  142      131.831057   0.000000
  143      134.196086   0.000000
  144      136.189511   0.000000
 
  0.1250000E+00  0.1250000E+00  0.0000000E+00  0.1171875E-01
    1      -13.776563   1.000000
    2      -13.751931   1.000000
    3      -13.751897   1.000000
    4      -13.663114   1.000000
    5      -13.656686   1.000000
    6      -10.229300   1.000000
    7        1.704343   1.000000
    8        2.579347   1.000000
    9        2.579353   1.000000
   10        7.193951   0.000000
   11        7.641509   0.000000
   12        9.063736   0.000000
   13        9.063850   0.000000
   14       12.361189   0.000000
   15       14.455591   0.000000
   16       14.504328   0.000000
   17       17.406657   0.000000
   18       17.406674   0.000000
   19       17.827593   0.000000
   20       22.394188   0.000000
   21       26.964912   0.000000
   22       26.964922   0.000000
   23       28.955600   0.000000
   24       29.429342   0.000000
   25       30.644866   0.000000
   26       33.392762   0.000000
   27       33.392996   0.000000
   28       34.719065   0.000000
   29       36.734796   0.000000
   30       36.734867   0.000000
   31       37.939668   0.000000
   32       40.760612   0.000000
   33       42.522153   0.000000
   34       42.522160   0.000000
   35       42.909044   0.000000
   36       44.609779   0.000000
   37       45.627766   0.000000
   38       46.102596   0.000000
   39       46.102915   0.000000
   40       46.144606   0.000000
   41       48.050531   0.000000
   42       48.050732   0.000000
   43       48.253606   0.000000
   44       49.792956   0.000000
   45       50.543633   0.000000
   46       51.053607   0.000000
   47       51.053664   0.000000
   48       52.194017   0.000000
   49       52.338309   0.000000
   50       53.151144   0.000000
   51       53.151324   0.000000
   52       53.809238   0.000000
   53       54.280211   0.000000
   54       54.280220   0.000000
   55       55.352762   0.000000
   56       56.660387   0.000000
   57       57.088665   0.000000
   58       57.088791   0.000000
   59       58.694218   0.000000
   60       59.977316   0.000000
   61       63.329166   0.000000
   62       63.329505   0.000000
   63       63.512365   0.000000
   64       65.643417   0.000000
   65       67.368860   0.000000
   66       72.184554   0.000000
   67       73.599106   0.000000
   68       73.599636   0.000000
   69       75.283309   0.000000
   70       75.906245   0.000000
   71       75.906701   0.000000
   72       77.934515   0.000000
   73       78.669445   0.000000
   74       81.711827   0.000000
   75       81.958051   0.000000
   76       82.535025   0.000000
   77       82.535281   0.000000
   78       84.304146   0.000000
   79       84.929106   0.000000
   80       84.930252   0.000000
   81       85.167482   0.000000
   82       86.888914   0.000000
   83       86.889819   0.000000
   84       88.553527   0.000000
   85       88.690318   0.000000
   86       88.848633   0.000000
   87       90.224579   0.000000
   88       90.225388   0.000000
   89       90.873473   0.000000
   90       90.944156   0.000000
   91       90.946664   0.000000
   92       91.726085   0.000000
   93       92.089707   0.000000
   94       93.805683   0.000000
   95       93.807359   0.000000
   96       94.037665   0.000000
   97       95.234074   0.000000
   98       95.261458   0.000000
   99       95.270379   0.000000
  100       95.747863   0.000000
  101       95.997216   0.000000
  102       96.727982   0.000000
  103       98.416467   0.000000
  104       98.487999   0.000000
  105       98.733147   0.000000
  106       99.420964   0.000000
  107       99.951821   0.000000
  108      101.276572   0.000000
  109      101.552465   0.000000
  110      102.126920   0.000000
  111      102.524127   0.000000
  112      102.587484   0.000000
  113      102.766547   0.000000
  114      103.447730   0.000000
  115      105.044218   0.000000
  116      105.163687   0.000000
  117      106.048030   0.000000
  118      107.917647   0.000000
  119      108.110645   0.000000
  120      108.937631   0.000000
  121      109.539122   0.000000
  122      109.795549   0.000000
  123      110.561149   0.000000
  124      110.983665   0.000000
  125      111.836330   0.000000
  126      113.824901   0.000000
  127      113.833154   0.000000
  128      114.510179   0.000000
  129      115.627438   0.000000
  130      116.274826   0.000000
  131      119.732800   0.000000
  132      120.378042   0.000000
  133      121.417182   0.000000
  134      121.901573   0.000000
  135      122.575598   0.000000
  136      123.144849   0.000000
  137      124.327371   0.000000
  138      125.701974   0.000000
  139      126.748299   0.000000
  140      127.685298   0.000000
  141      128.139509   0.000000
  142      130.177406   0.000000
  143      130.777357   0.000000
  144      132.400960   0.000000
 
  0.2500000E+00  0.1250000E+00  0.0000000E+00  0.4687500E-01
    1      -13.793688   1.000000
    2      -13.743947   1.000000
    3      -13.742117   1.000000
    4      -13.665865   1.000000
    5      -13.654208   1.000000
    6       -9.742674   1.000000
    7       -0.227475   1.000000
    8        2.047583   1.000000
    9        2.114990   1.000000
   10        7.082764   0.000000
   11        8.138872   0.000000
   12        9.853950   0.000000
   13        9.926774   0.000000
   14       12.363284   0.000000
   15       14.443060   0.000000
   16       15.568752   0.000000
   17       17.304507   0.000000
   18       19.158545   0.000000
   19       20.384279   0.000000
   20       23.908517   0.000000
   21       24.024942   0.000000
   22       24.933437   0.000000
   23       27.587444   0.000000
   24       28.910596   0.000000
   25       29.623062   0.000000