 vasp.5.4.4.18Apr17-6-g9f103f2a35 (build Apr 07 2018 02:38:49) complex          
  
 executed on             LinuxIFC date 2018.11.02  19:26:13
 running on   16 total cores
 distrk:  each k-point on   16 cores,    1 groups
 distr:  one band on NCORES_PER_BAND=   1 cores,   16 groups


--------------------------------------------------------------------------------------------------------


 INCAR:
 POTCAR:    PAW_PBE P 17Jan2003                   
 POTCAR:   PAW_PBE Ga 08Apr2002                   

 ----------------------------------------------------------------------------- 
|                                                                             |
|           W    W    AA    RRRRR   N    N  II  N    N   GGGG   !!!           |
|           W    W   A  A   R    R  NN   N  II  NN   N  G    G  !!!           |
|           W    W  A    A  R    R  N N  N  II  N N  N  G       !!!           |
|           W WW W  AAAAAA  RRRRR   N  N N  II  N  N N  G  GGG   !            |
|           WW  WW  A    A  R   R   N   NN  II  N   NN  G    G                |
|           W    W  A    A  R    R  N    N  II  N    N   GGGG   !!!           |
|                                                                             |
|      For optimal performance we recommend to set                            |
|        NCORE= 4 - approx SQRT( number of cores)                             |
|      NCORE specifies how many cores store one orbital (NPAR=cpu/NCORE).     |
|      This setting can  greatly improve the performance of VASP for DFT.     |
|      The default,   NCORE=1            might be grossly inefficient         |
|      on modern multi-core architectures or massively parallel machines.     |
|      Do your own testing !!!!                                               |
|      Unfortunately you need to use the default for GW and RPA calculations. |
|      (for HF NCORE is supported but not extensively tested yet)             |
|                                                                             |
 ----------------------------------------------------------------------------- 

 POTCAR:    PAW_PBE P 17Jan2003                   
   VRHFIN =P : s2p3                                                             
   LEXCH  = PE                                                                  
   EATOM  =   176.0430 eV,   12.9388 Ry                                         
                                                                                
   TITEL  = PAW_PBE P 17Jan2003                                                 
   LULTRA =        F    use ultrasoft PP ?                                      
   IUNSCR =        1    unscreen: 0-lin 1-nonlin 2-no                           
   RPACOR =    1.500    partial core radius                                     
   POMASS =   30.974; ZVAL   =    5.000    mass and valenz                      
   RCORE  =    1.900    outmost cutoff radius                                   
   RWIGS  =    2.330; RWIGS  =    1.233    wigner-seitz radius (au A)           
   ENMAX  =  270.000; ENMIN  =  191.280 eV                                      
   ICORE  =        2    local potential                                         
   LCOR   =        T    correct aug charges                                     
   LPAW   =        T    paw PP                                                  
   EAUG   =  342.924                                                            
   DEXC   =    -.002                                                            
   RMAX   =    2.887    core radius for proj-oper                               
   RAUG   =    1.300    factor for augmentation sphere                          
   RDEP   =    1.931    radius for radial grids                                 
   QCUT   =   -4.330; QGAM   =    8.659    optimization parameters              
                                                                                
   Description                                                                  
     l     E      TYP  RCUT    TYP  RCUT                                        
     0   .000     23  1.900                                                     
     0   .000     23  1.900                                                     
     1   .000     23  1.900                                                     
     1   .000     23  1.900                                                     
     2   .000     23  1.900                                                     
  local pseudopotential read in
  partial core-charges read in
  atomic valenz-charges read in
  non local Contribution for L=           0  read in
    real space projection operators read in
  non local Contribution for L=           0  read in
    real space projection operators read in
  non local Contribution for L=           1  read in
    real space projection operators read in
  non local Contribution for L=           1  read in
    real space projection operators read in
    PAW grid and wavefunctions read in
 
   number of l-projection  operators is LMAX  =           4
   number of lm-projection operators is LMMAX =           8
 
 POTCAR:   PAW_PBE Ga 08Apr2002                   
   VRHFIN =Ga: s2p1                                                             
   LEXCH  = PE                                                                  
   EATOM  =    58.8688 eV,    4.3267 Ry                                         
                                                                                
   TITEL  = PAW_PBE Ga 08Apr2002                                                
   LULTRA =        F    use ultrasoft PP ?                                      
   IUNSCR =        1    unscreen: 0-lin 1-nonlin 2-no                           
   RPACOR =    2.170    partial core radius                                     
   POMASS =   69.723; ZVAL   =    3.000    mass and valenz                      
   RCORE  =    2.600    outmost cutoff radius                                   
   RWIGS  =    2.650; RWIGS  =    1.402    wigner-seitz radius (au A)           
   ENMAX  =  134.678; ENMIN  =  101.009 eV                                      
   ICORE  =        3    local potential                                         
   LCOR   =        T    correct aug charges                                     
   LPAW   =        T    paw PP                                                  
   EAUG   =  320.264                                                            
   DEXC   =    -.116                                                            
   RMAX   =    3.973    core radius for proj-oper                               
   RAUG   =    1.300    factor for augmentation sphere                          
   RDEP   =    2.684    radius for radial grids                                 
   QCUT   =   -3.146; QGAM   =    6.292    optimization parameters              
                                                                                
   Description                                                                  
     l     E      TYP  RCUT    TYP  RCUT                                        
     0   .000     23  2.600                                                     
     0   .000     23  2.600                                                     
     1   .000     23  2.600                                                     
     1   .000     23  2.600                                                     
     2   .100     23  2.600                                                     
     3  -.100      7  2.600                                                     
  local pseudopotential read in
  partial core-charges read in
  atomic valenz-charges read in
  non local Contribution for L=           0  read in
    real space projection operators read in
  non local Contribution for L=           0  read in
    real space projection operators read in
  non local Contribution for L=           1  read in
    real space projection operators read in
  non local Contribution for L=           1  read in
    real space projection operators read in
  non local Contribution for L=           2  read in
    real space projection operators read in
    PAW grid and wavefunctions read in
 
   number of l-projection  operators is LMAX  =           5
   number of lm-projection operators is LMMAX =          13
 

 ----------------------------------------------------------------------------- 
|                                                                             |
|  ADVICE TO THIS USER RUNNING 'VASP/VAMP'   (HEAR YOUR MASTER'S VOICE ...):  |
|                                                                             |
|      You have a (more or less) 'small supercell' and for smaller cells      |
|      it is recommended  to use the reciprocal-space projection scheme!      |
|      The real space optimization is not  efficient for small cells and it   |
|      is also less accurate ...                                              |
|      Therefore set LREAL=.FALSE. in the  INCAR file                         |
|                                                                             |
 ----------------------------------------------------------------------------- 

 Optimization of the real space projectors (new method)

 maximal supplied QI-value         = 19.84
 optimisation between [QCUT,QGAM] = [ 10.12, 20.44] = [ 28.68,116.96] Ry 
 Optimized for a Real-space Cutoff    1.23 Angstroem

   l    n(q)    QCUT    max X(q) W(low)/X(q) W(high)/X(q)  e(spline) 
   0      7    10.119     6.651    0.28E-04    0.16E-04    0.42E-08
   0      7    10.119    90.285    0.69E-04    0.27E-03    0.48E-07
   1      7    10.119     4.328    0.40E-04    0.49E-05    0.14E-07
   1      7    10.119    54.583    0.42E-03    0.58E-03    0.12E-06
 Optimization of the real space projectors (new method)

 maximal supplied QI-value         = 14.36
 optimisation between [QCUT,QGAM] = [ 10.20, 20.39] = [ 29.12,116.47] Ry 
 Optimized for a Real-space Cutoff    1.42 Angstroem

   l    n(q)    QCUT    max X(q) W(low)/X(q) W(high)/X(q)  e(spline) 
   0      9    10.197    12.544    0.21E-04    0.31E-04    0.23E-07
   0      9    10.197    38.139    0.36E-04    0.17E-03    0.82E-07
   1      8    10.197     7.814    0.82E-04    0.12E-04    0.57E-07
   1      8    10.197    32.324    0.47E-03    0.24E-03    0.14E-06
   2      8    10.197     5.217    0.48E-04    0.31E-03    0.78E-07
  PAW_PBE P 17Jan2003                   :
 energy of atom  1       EATOM= -176.0430
 kinetic energy error for atom=    0.0023 (will be added to EATOM!!)
 PAW_PBE Ga 08Apr2002                   :
 energy of atom  2       EATOM=  -58.8688
 kinetic energy error for atom=    0.0001 (will be added to EATOM!!)
 
 
 POSCAR: Primitive Cell                          
  positions in direct lattice
  No initial velocities read in
 exchange correlation table for  LEXCH =        8
   RHO(1)=    0.500       N(1)  =     2000
   RHO(2)=  100.500       N(2)  =     4000

 VTST: version 3.1, (03/28/14)

 CHAIN: initializing optimizer
 
 OPT: Using VASP Dynamics algorithm
 CHAIN: Read ICHAIN            0
 
 POSCAR: Primitive Cell                          
  positions in direct lattice
  No initial velocities read in
 


--------------------------------------------------------------------------------------------------------


 ion  position               nearest neighbor table
   1  0.750  0.750  0.750-   2 2.36   2 2.36   2 2.36   2 2.36
   2  0.000  0.000  0.000-   1 2.36   1 2.36   1 2.36   1 2.36
 
  LATTYP: Found a face centered cubic cell.
 ALAT       =     5.4505000000
  
  Lattice vectors:
  
 A1 = (   0.0000000000,   2.7252500000,   2.7252500000)
 A2 = (   2.7252500000,   0.0000000000,   2.7252500000)
 A3 = (   2.7252500000,   2.7252500000,   0.0000000000)


Analysis of symmetry for initial positions (statically):
=====================================================================
 Subroutine PRICEL returns:
 Original cell was already a primitive cell.
 

 Routine SETGRP: Setting up the symmetry group for a 
 face centered cubic supercell.


 Subroutine GETGRP returns: Found 24 space group operations
 (whereof 24 operations were pure point group operations)
 out of a pool of 48 trial point group operations.


The static configuration has the point symmetry T_d .


Analysis of symmetry for dynamics (positions and initial velocities):
=====================================================================
 Subroutine PRICEL returns:
 Original cell was already a primitive cell.
 

 Routine SETGRP: Setting up the symmetry group for a 
 face centered cubic supercell.


 Subroutine GETGRP returns: Found 24 space group operations
 (whereof 24 operations were pure point group operations)
 out of a pool of 48 trial point group operations.


The dynamic configuration has the point symmetry T_d .


 Subroutine INISYM returns: Found 24 space group operations
 (whereof 24 operations are pure point group operations),
 and found     1 'primitive' translations

 
 
 KPOINTS: # Don't Edit This Line!     24    10    
  k-points in reciprocal lattice
Space group operators:
 irot       det(A)        alpha          n_x          n_y          n_z        tau_x        tau_y        tau_z
    1     1.000000     0.000001     1.000000     0.000000     0.000000     0.000000     0.000000     0.000000
    2     1.000000   120.000000    -0.577350    -0.577350    -0.577350     0.000000     0.000000     0.000000
    3     1.000000   120.000000     0.577350     0.577350     0.577350     0.000000     0.000000     0.000000
    4    -1.000000    90.000000     0.000000     0.000000    -1.000000     0.000000     0.000000     0.000000
    5    -1.000000   180.000000     0.000000     0.707107     0.707107     0.000000     0.000000     0.000000
    6    -1.000000    90.000000     0.000000     1.000000     0.000000     0.000000     0.000000     0.000000
    7     1.000000   180.000000     0.000000     0.000000     1.000000     0.000000     0.000000     0.000000
    8     1.000000   120.000000    -0.577350     0.577350     0.577350     0.000000     0.000000     0.000000
    9     1.000000   120.000000    -0.577350     0.577350    -0.577350     0.000000     0.000000     0.000000
   10    -1.000000    90.000000     0.000000     0.000000     1.000000     0.000000     0.000000     0.000000
   11    -1.000000    90.000000    -1.000000     0.000000     0.000000     0.000000     0.000000     0.000000
   12    -1.000000   180.000000     0.707107     0.000000     0.707107     0.000000     0.000000     0.000000
   13     1.000000   120.000000     0.577350    -0.577350     0.577350     0.000000     0.000000     0.000000
   14     1.000000   120.000000    -0.577350    -0.577350     0.577350     0.000000     0.000000     0.000000
   15     1.000000   180.000000     1.000000     0.000000     0.000000     0.000000     0.000000     0.000000
   16    -1.000000    90.000000     0.000000    -1.000000     0.000000     0.000000     0.000000     0.000000
   17    -1.000000   180.000000     0.707107     0.707107     0.000000     0.000000     0.000000     0.000000
   18    -1.000000    90.000000     1.000000     0.000000     0.000000     0.000000     0.000000     0.000000
   19     1.000000   120.000000     0.577350    -0.577350    -0.577350     0.000000     0.000000     0.000000
   20     1.000000   180.000000     0.000000     1.000000     0.000000     0.000000     0.000000     0.000000
   21     1.000000   120.000000     0.577350     0.577350    -0.577350     0.000000     0.000000     0.000000
   22    -1.000000   180.000000     0.000000    -0.707107     0.707107     0.000000     0.000000     0.000000
   23    -1.000000   180.000000     0.707107    -0.707107     0.000000     0.000000     0.000000     0.000000
   24    -1.000000   180.000000     0.707107     0.000000    -0.707107     0.000000     0.000000     0.000000

 ----------------------------------------------------------------------------- 
|                                                                             |
|           W    W    AA    RRRRR   N    N  II  N    N   GGGG   !!!           |
|           W    W   A  A   R    R  NN   N  II  NN   N  G    G  !!!           |
|           W    W  A    A  R    R  N N  N  II  N N  N  G       !!!           |
|           W WW W  AAAAAA  RRRRR   N  N N  II  N  N N  G  GGG   !            |
|           WW  WW  A    A  R   R   N   NN  II  N   NN  G    G                |
|           W    W  A    A  R    R  N    N  II  N    N   GGGG   !!!           |
|                                                                             |
|      Your generating k-point grid is not commensurate to the symmetry       |
|      of the lattice.  This can cause   slow convergence with respect        |
|      to k-points for HF type calculations                                   |
|      suggested SOLUTIONS:                                                   |
|       ) if not already the case, use automatic k-point generation           |
|       ) shift your grid to Gamma (G) (e.g. required for hex or fcc lattice) |
|                                                                             |
 ----------------------------------------------------------------------------- 

 
 Subroutine IBZKPT_HF returns following result:
 ==============================================
 
 Found    515 k-points in 1st BZ
 the following    515 k-points will be used (e.g. in the exchange kernel)
 Following reciprocal coordinates:   # in IRBZ
  0.000000  0.000000  0.000000    0.00390625   1 t-inv F
  0.125000  0.000000  0.000000    0.00146484   2 t-inv F
  0.250000  0.000000  0.000000    0.00244141   3 t-inv F
  0.375000  0.000000  0.000000    0.00244141   4 t-inv F
  0.500000  0.000000  0.000000    0.00292969   5 t-inv F
  0.125000  0.125000  0.000000    0.00162760   6 t-inv F
  0.250000  0.125000  0.000000    0.00236003   7 t-inv F
  0.375000  0.125000  0.000000    0.00146484   8 t-inv F
  0.500000  0.125000  0.000000    0.00170898   9 t-inv F
 -0.375000  0.125000  0.000000    0.00170898  10 t-inv F
 -0.250000  0.125000  0.000000    0.00162760  11 t-inv F
  0.250000  0.250000  0.000000    0.00065104  12 t-inv F
  0.375000  0.250000  0.000000    0.00301107  13 t-inv F
  0.500000  0.250000  0.000000    0.00349935  14 t-inv F
 -0.375000  0.250000  0.000000    0.00349935  15 t-inv F
 -0.250000  0.250000  0.000000    0.00292969  16 t-inv F
  0.375000  0.375000  0.000000    0.00065104  17 t-inv F
  0.500000  0.375000  0.000000    0.00309245  18 t-inv F
 -0.375000  0.375000  0.000000    0.00553385  19 t-inv F
  0.375000  0.250000  0.125000    0.00048828  20 t-inv F
  0.500000  0.250000  0.125000    0.00089518  21 t-inv F
 -0.375000  0.250000  0.125000    0.00146484  22 t-inv F
  0.500000  0.375000  0.125000    0.00122070  23 t-inv F
 -0.375000  0.375000  0.125000    0.00349935  24 t-inv F
  0.000000  0.000000  0.000000    0.00000000  25 t-inv F
  0.055556  0.000000  0.055556    0.00000000  26 t-inv F
  0.111111  0.000000  0.111111    0.00000000  27 t-inv F
  0.166667  0.000000  0.166667    0.00000000  28 t-inv F
  0.222222  0.000000  0.222222    0.00000000  29 t-inv F
  0.277778  0.000000  0.277778    0.00000000  30 t-inv F
  0.333333  0.000000  0.333333    0.00000000  31 t-inv F
  0.388889  0.000000  0.388889    0.00000000  32 t-inv F
  0.444444  0.000000  0.444444    0.00000000  33 t-inv F
  0.500000  0.000000  0.500000    0.00000000  34 t-inv F
  0.500000  0.000000  0.500000    0.00000000  35 t-inv F
  0.513889  0.027778  0.513889    0.00000000  36 t-inv F
  0.527778  0.055556  0.527778    0.00000000  37 t-inv F
  0.541667  0.083333  0.541667    0.00000000  38 t-inv F
  0.555556  0.111111  0.555556    0.00000000  39 t-inv F
  0.569444  0.138889  0.569444    0.00000000  40 t-inv F
  0.583333  0.166667  0.583333    0.00000000  41 t-inv F
  0.597222  0.194444  0.597222    0.00000000  42 t-inv F
  0.611111  0.222222  0.611111    0.00000000  43 t-inv F
  0.625000  0.250000  0.625000    0.00000000  44 t-inv F
  0.375000  0.375000  0.750000    0.00000000  45 t-inv F
  0.333333  0.333333  0.666667    0.00000000  46 t-inv F
  0.291667  0.291667  0.583333    0.00000000  47 t-inv F
  0.250000  0.250000  0.500000    0.00000000  48 t-inv F
  0.208333  0.208333  0.416667    0.00000000  49 t-inv F
  0.166667  0.166667  0.333333    0.00000000  50 t-inv F
  0.125000  0.125000  0.250000    0.00000000  51 t-inv F
  0.083333  0.083333  0.166667    0.00000000  52 t-inv F
  0.041667  0.041667  0.083333    0.00000000  53 t-inv F
  0.000000  0.000000  0.000000    0.00000000  54 t-inv F
  0.000000  0.000000  0.000000    0.00000000  55 t-inv F
  0.055556  0.055556  0.055556    0.00000000  56 t-inv F
  0.111111  0.111111  0.111111    0.00000000  57 t-inv F
  0.166667  0.166667  0.166667    0.00000000  58 t-inv F
  0.222222  0.222222  0.222222    0.00000000  59 t-inv F
  0.277778  0.277778  0.277778    0.00000000  60 t-inv F
  0.333333  0.333333  0.333333    0.00000000  61 t-inv F
  0.388889  0.388889  0.388889    0.00000000  62 t-inv F
  0.444444  0.444444  0.444444    0.00000000  63 t-inv F
  0.500000  0.500000  0.500000    0.00000000  64 t-inv F
  0.500000  0.500000  0.500000    0.00000000  65 t-inv F
  0.500000  0.472222  0.527778    0.00000000  66 t-inv F
  0.500000  0.444444  0.555556    0.00000000  67 t-inv F
  0.500000  0.416667  0.583333    0.00000000  68 t-inv F
  0.500000  0.388889  0.611111    0.00000000  69 t-inv F
  0.500000  0.361111  0.638889    0.00000000  70 t-inv F
  0.500000  0.333333  0.666667    0.00000000  71 t-inv F
  0.500000  0.305556  0.694444    0.00000000  72 t-inv F
  0.500000  0.277778  0.722222    0.00000000  73 t-inv F
  0.500000  0.250000  0.750000    0.00000000  74 t-inv F
  0.500000  0.250000  0.750000    0.00000000  75 t-inv F
  0.500000  0.222222  0.722222    0.00000000  76 t-inv F
  0.500000  0.194444  0.694444    0.00000000  77 t-inv F
  0.500000  0.166667  0.666667    0.00000000  78 t-inv F
  0.500000  0.138889  0.638889    0.00000000  79 t-inv F
  0.500000  0.111111  0.611111    0.00000000  80 t-inv F
  0.500000  0.083333  0.583333    0.00000000  81 t-inv F
  0.500000  0.055556  0.555556    0.00000000  82 t-inv F
  0.500000  0.027778  0.527778    0.00000000  83 t-inv F
  0.500000  0.000000  0.500000    0.00000000  84 t-inv F
  0.000000  0.125000  0.000000    0.00146484   2 t-inv F
  0.000000  0.000000  0.125000    0.00146484   2 t-inv F
 -0.125000 -0.125000 -0.125000    0.00146484   2 t-inv F
  0.000000  0.250000  0.000000    0.00244141   3 t-inv F
  0.000000  0.000000  0.250000    0.00244141   3 t-inv F
 -0.250000 -0.250000 -0.250000    0.00244141   3 t-inv F
  0.000000  0.375000  0.000000    0.00244141   4 t-inv F
  0.000000  0.000000  0.375000    0.00244141   4 t-inv F
 -0.375000 -0.375000 -0.375000    0.00244141   4 t-inv F
  0.000000  0.500000  0.000000    0.00292969   5 t-inv F
  0.000000  0.000000  0.500000    0.00292969   5 t-inv F
 -0.500000 -0.500000 -0.500000    0.00292969   5 t-inv F
  0.000000  0.125000  0.125000    0.00162760   6 t-inv F
  0.125000  0.000000  0.125000    0.00162760   6 t-inv F
 -0.125000 -0.125000  0.000000    0.00162760   6 t-inv F
 -0.125000  0.000000 -0.125000    0.00162760   6 t-inv F
  0.000000 -0.125000 -0.125000    0.00162760   6 t-inv F
  0.000000  0.250000  0.125000    0.00236003   7 t-inv F
  0.125000  0.000000  0.250000    0.00236003   7 t-inv F
 -0.125000 -0.125000  0.125000    0.00236003   7 t-inv F
 -0.250000 -0.125000 -0.250000    0.00236003   7 t-inv F
  0.125000  0.250000  0.000000    0.00236003   7 t-inv F
  0.125000 -0.125000 -0.125000    0.00236003   7 t-inv F
 -0.250000 -0.250000 -0.125000    0.00236003   7 t-inv F
  0.000000  0.125000  0.250000    0.00236003   7 t-inv F
 -0.125000  0.125000 -0.125000    0.00236003   7 t-inv F
 -0.125000 -0.250000 -0.250000    0.00236003   7 t-inv F
  0.250000  0.000000  0.125000    0.00236003   7 t-inv F
  0.000000  0.375000  0.125000    0.00146484   8 t-inv F
  0.125000  0.000000  0.375000    0.00146484   8 t-inv F
 -0.125000 -0.125000  0.250000    0.00146484   8 t-inv F
 -0.375000 -0.250000 -0.375000    0.00146484   8 t-inv F
  0.125000  0.375000  0.000000    0.00146484   8 t-inv F
  0.250000 -0.125000 -0.125000    0.00146484   8 t-inv F
 -0.375000 -0.375000 -0.250000    0.00146484   8 t-inv F
  0.000000  0.125000  0.375000    0.00146484   8 t-inv F
 -0.125000  0.250000 -0.125000    0.00146484   8 t-inv F
 -0.250000 -0.375000 -0.375000    0.00146484   8 t-inv F
  0.375000  0.000000  0.125000    0.00146484   8 t-inv F
  0.000000  0.500000  0.125000    0.00170898   9 t-inv F
  0.125000  0.000000  0.500000    0.00170898   9 t-inv F
 -0.125000 -0.125000  0.375000    0.00170898   9 t-inv F
 -0.500000 -0.375000 -0.500000    0.00170898   9 t-inv F
  0.125000  0.500000  0.000000    0.00170898   9 t-inv F
  0.375000 -0.125000 -0.125000    0.00170898   9 t-inv F
 -0.500000 -0.500000 -0.375000    0.00170898   9 t-inv F
  0.000000  0.125000  0.500000    0.00170898   9 t-inv F
 -0.125000  0.375000 -0.125000    0.00170898   9 t-inv F
 -0.375000 -0.500000 -0.500000    0.00170898   9 t-inv F
  0.500000  0.000000  0.125000    0.00170898   9 t-inv F
  0.000000 -0.375000  0.125000    0.00170898  10 t-inv F
  0.125000  0.000000 -0.375000    0.00170898  10 t-inv F
 -0.125000 -0.125000 -0.500000    0.00170898  10 t-inv F
  0.375000  0.500000  0.375000    0.00170898  10 t-inv F
  0.125000 -0.375000  0.000000    0.00170898  10 t-inv F
 -0.500000 -0.125000 -0.125000    0.00170898  10 t-inv F
  0.375000  0.375000  0.500000    0.00170898  10 t-inv F
  0.000000  0.125000 -0.375000    0.00170898  10 t-inv F
 -0.125000 -0.500000 -0.125000    0.00170898  10 t-inv F
  0.500000  0.375000  0.375000    0.00170898  10 t-inv F
 -0.375000  0.000000  0.125000    0.00170898  10 t-inv F
  0.000000 -0.250000  0.125000    0.00162760  11 t-inv F
  0.125000  0.000000 -0.250000    0.00162760  11 t-inv F
 -0.125000 -0.125000 -0.375000    0.00162760  11 t-inv F
  0.250000  0.375000  0.250000    0.00162760  11 t-inv F
  0.125000 -0.250000  0.000000    0.00162760  11 t-inv F
 -0.375000 -0.125000 -0.125000    0.00162760  11 t-inv F
  0.250000  0.250000  0.375000    0.00162760  11 t-inv F
  0.000000  0.125000 -0.250000    0.00162760  11 t-inv F
 -0.125000 -0.375000 -0.125000    0.00162760  11 t-inv F
  0.375000  0.250000  0.250000    0.00162760  11 t-inv F
 -0.250000  0.000000  0.125000    0.00162760  11 t-inv F
  0.000000  0.250000  0.250000    0.00065104  12 t-inv F
  0.250000  0.000000  0.250000    0.00065104  12 t-inv F
 -0.250000 -0.250000  0.000000    0.00065104  12 t-inv F
 -0.250000  0.000000 -0.250000    0.00065104  12 t-inv F
  0.000000 -0.250000 -0.250000    0.00065104  12 t-inv F
  0.000000  0.375000  0.250000    0.00301107  13 t-inv F
  0.250000  0.000000  0.375000    0.00301107  13 t-inv F
 -0.250000 -0.250000  0.125000    0.00301107  13 t-inv F
 -0.375000 -0.125000 -0.375000    0.00301107  13 t-inv F
  0.250000  0.375000  0.000000    0.00301107  13 t-inv F
  0.125000 -0.250000 -0.250000    0.00301107  13 t-inv F
 -0.375000 -0.375000 -0.125000    0.00301107  13 t-inv F
  0.000000  0.250000  0.375000    0.00301107  13 t-inv F
 -0.250000  0.125000 -0.250000    0.00301107  13 t-inv F
 -0.125000 -0.375000 -0.375000    0.00301107  13 t-inv F
  0.375000  0.000000  0.250000    0.00301107  13 t-inv F
  0.000000  0.500000  0.250000    0.00349935  14 t-inv F
  0.250000  0.000000  0.500000    0.00349935  14 t-inv F
 -0.250000 -0.250000  0.250000    0.00349935  14 t-inv F
 -0.500000 -0.250000 -0.500000    0.00349935  14 t-inv F
  0.250000  0.500000  0.000000    0.00349935  14 t-inv F
  0.250000 -0.250000 -0.250000    0.00349935  14 t-inv F
 -0.500000 -0.500000 -0.250000    0.00349935  14 t-inv F
  0.000000  0.250000  0.500000    0.00349935  14 t-inv F
 -0.250000  0.250000 -0.250000    0.00349935  14 t-inv F
 -0.250000 -0.500000 -0.500000    0.00349935  14 t-inv F
  0.500000  0.000000  0.250000    0.00349935  14 t-inv F
  0.000000 -0.375000  0.250000    0.00349935  15 t-inv F
  0.250000  0.000000 -0.375000    0.00349935  15 t-inv F
 -0.250000 -0.250000 -0.625000    0.00349935  15 t-inv F
  0.375000  0.625000  0.375000    0.00349935  15 t-inv F
  0.250000 -0.375000  0.000000    0.00349935  15 t-inv F
 -0.625000 -0.250000 -0.250000    0.00349935  15 t-inv F
  0.375000  0.375000  0.625000    0.00349935  15 t-inv F
  0.000000  0.250000 -0.375000    0.00349935  15 t-inv F
 -0.250000 -0.625000 -0.250000    0.00349935  15 t-inv F
  0.625000  0.375000  0.375000    0.00349935  15 t-inv F
 -0.375000  0.000000  0.250000    0.00349935  15 t-inv F
  0.000000 -0.250000  0.250000    0.00292969  16 t-inv F
  0.250000  0.000000 -0.250000    0.00292969  16 t-inv F
 -0.250000 -0.250000 -0.500000    0.00292969  16 t-inv F
  0.250000  0.500000  0.250000    0.00292969  16 t-inv F
  0.250000 -0.250000  0.000000    0.00292969  16 t-inv F
 -0.500000 -0.250000 -0.250000    0.00292969  16 t-inv F
  0.250000  0.250000  0.500000    0.00292969  16 t-inv F
  0.000000  0.250000 -0.250000    0.00292969  16 t-inv F
 -0.250000 -0.500000 -0.250000    0.00292969  16 t-inv F
  0.500000  0.250000  0.250000    0.00292969  16 t-inv F
 -0.250000  0.000000  0.250000    0.00292969  16 t-inv F
  0.000000  0.375000  0.375000    0.00065104  17 t-inv F
  0.375000  0.000000  0.375000    0.00065104  17 t-inv F
 -0.375000 -0.375000  0.000000    0.00065104  17 t-inv F
 -0.375000  0.000000 -0.375000    0.00065104  17 t-inv F
  0.000000 -0.375000 -0.375000    0.00065104  17 t-inv F
  0.000000  0.500000  0.375000    0.00309245  18 t-inv F
  0.375000  0.000000  0.500000    0.00309245  18 t-inv F
 -0.375000 -0.375000  0.125000    0.00309245  18 t-inv F
 -0.500000 -0.125000 -0.500000    0.00309245  18 t-inv F
  0.375000  0.500000  0.000000    0.00309245  18 t-inv F
  0.125000 -0.375000 -0.375000    0.00309245  18 t-inv F
 -0.500000 -0.500000 -0.125000    0.00309245  18 t-inv F
  0.000000  0.375000  0.500000    0.00309245  18 t-inv F
 -0.375000  0.125000 -0.375000    0.00309245  18 t-inv F
 -0.125000 -0.500000 -0.500000    0.00309245  18 t-inv F
  0.500000  0.000000  0.375000    0.00309245  18 t-inv F
  0.000000 -0.375000  0.375000    0.00553385  19 t-inv F
  0.375000  0.000000 -0.375000    0.00553385  19 t-inv F
 -0.375000 -0.375000 -0.750000    0.00553385  19 t-inv F
  0.375000  0.750000  0.375000    0.00553385  19 t-inv F
  0.375000 -0.375000  0.000000    0.00553385  19 t-inv F
 -0.750000 -0.375000 -0.375000    0.00553385  19 t-inv F
  0.375000  0.375000  0.750000    0.00553385  19 t-inv F
  0.000000  0.375000 -0.375000    0.00553385  19 t-inv F
 -0.375000 -0.750000 -0.375000    0.00553385  19 t-inv F
  0.750000  0.375000  0.375000    0.00553385  19 t-inv F
 -0.375000  0.000000  0.375000    0.00553385  19 t-inv F
  0.125000  0.375000  0.250000    0.00048828  20 t-inv F
  0.250000  0.125000  0.375000    0.00048828  20 t-inv F
 -0.250000 -0.125000  0.125000    0.00048828  20 t-inv F
 -0.375000 -0.125000 -0.250000    0.00048828  20 t-inv F
 -0.125000  0.250000  0.125000    0.00048828  20 t-inv F
  0.125000  0.250000 -0.125000    0.00048828  20 t-inv F
  0.125000 -0.125000 -0.250000    0.00048828  20 t-inv F
 -0.250000 -0.125000 -0.375000    0.00048828  20 t-inv F
 -0.250000 -0.375000 -0.125000    0.00048828  20 t-inv F
  0.125000 -0.125000  0.250000    0.00048828  20 t-inv F
  0.125000 -0.250000 -0.125000    0.00048828  20 t-inv F
 -0.125000  0.125000  0.250000    0.00048828  20 t-inv F
 -0.250000  0.125000 -0.125000    0.00048828  20 t-inv F
 -0.375000 -0.250000 -0.125000    0.00048828  20 t-inv F
 -0.125000 -0.250000 -0.375000    0.00048828  20 t-inv F
  0.250000  0.125000 -0.125000    0.00048828  20 t-inv F
 -0.125000  0.125000 -0.250000    0.00048828  20 t-inv F
  0.250000 -0.125000  0.125000    0.00048828  20 t-inv F
 -0.125000 -0.250000  0.125000    0.00048828  20 t-inv F
 -0.125000 -0.375000 -0.250000    0.00048828  20 t-inv F
  0.375000  0.125000  0.250000    0.00048828  20 t-inv F
  0.250000  0.375000  0.125000    0.00048828  20 t-inv F
  0.125000  0.250000  0.375000    0.00048828  20 t-inv F
  0.125000  0.500000  0.250000    0.00089518  21 t-inv F
  0.250000  0.125000  0.500000    0.00089518  21 t-inv F
 -0.250000 -0.125000  0.250000    0.00089518  21 t-inv F
 -0.500000 -0.250000 -0.375000    0.00089518  21 t-inv F
 -0.125000  0.375000  0.125000    0.00089518  21 t-inv F
  0.125000  0.375000 -0.125000    0.00089518  21 t-inv F
  0.250000 -0.125000 -0.250000    0.00089518  21 t-inv F
 -0.375000 -0.250000 -0.500000    0.00089518  21 t-inv F
 -0.375000 -0.500000 -0.250000    0.00089518  21 t-inv F
  0.125000 -0.125000  0.375000    0.00089518  21 t-inv F
  0.250000 -0.250000 -0.125000    0.00089518  21 t-inv F
 -0.125000  0.125000  0.375000    0.00089518  21 t-inv F
 -0.250000  0.250000 -0.125000    0.00089518  21 t-inv F
 -0.500000 -0.375000 -0.250000    0.00089518  21 t-inv F
 -0.250000 -0.375000 -0.500000    0.00089518  21 t-inv F
  0.375000  0.125000 -0.125000    0.00089518  21 t-inv F
 -0.125000  0.250000 -0.250000    0.00089518  21 t-inv F
  0.375000 -0.125000  0.125000    0.00089518  21 t-inv F
 -0.125000 -0.250000  0.250000    0.00089518  21 t-inv F
 -0.250000 -0.500000 -0.375000    0.00089518  21 t-inv F
  0.500000  0.125000  0.250000    0.00089518  21 t-inv F
  0.250000  0.500000  0.125000    0.00089518  21 t-inv F
  0.125000  0.250000  0.500000    0.00089518  21 t-inv F
  0.125000 -0.375000  0.250000    0.00146484  22 t-inv F
  0.250000  0.125000 -0.375000    0.00146484  22 t-inv F
 -0.250000 -0.125000 -0.625000    0.00146484  22 t-inv F
  0.375000  0.625000  0.500000    0.00146484  22 t-inv F
 -0.125000 -0.500000  0.125000    0.00146484  22 t-inv F
  0.125000 -0.500000 -0.125000    0.00146484  22 t-inv F
 -0.625000 -0.125000 -0.250000    0.00146484  22 t-inv F
  0.500000  0.625000  0.375000    0.00146484  22 t-inv F
  0.500000  0.375000  0.625000    0.00146484  22 t-inv F
  0.125000 -0.125000 -0.500000    0.00146484  22 t-inv F
 -0.625000 -0.250000 -0.125000    0.00146484  22 t-inv F
 -0.125000  0.125000 -0.500000    0.00146484  22 t-inv F
 -0.250000 -0.625000 -0.125000    0.00146484  22 t-inv F
  0.375000  0.500000  0.625000    0.00146484  22 t-inv F
  0.625000  0.500000  0.375000    0.00146484  22 t-inv F
 -0.500000  0.125000 -0.125000    0.00146484  22 t-inv F
 -0.125000 -0.625000 -0.250000    0.00146484  22 t-inv F
 -0.500000 -0.125000  0.125000    0.00146484  22 t-inv F
 -0.125000 -0.250000 -0.625000    0.00146484  22 t-inv F
  0.625000  0.375000  0.500000    0.00146484  22 t-inv F
 -0.375000  0.125000  0.250000    0.00146484  22 t-inv F
  0.250000 -0.375000  0.125000    0.00146484  22 t-inv F
  0.125000  0.250000 -0.375000    0.00146484  22 t-inv F
  0.125000  0.500000  0.375000    0.00122070  23 t-inv F
  0.375000  0.125000  0.500000    0.00122070  23 t-inv F
 -0.375000 -0.250000  0.125000    0.00122070  23 t-inv F
 -0.500000 -0.125000 -0.375000    0.00122070  23 t-inv F
 -0.125000  0.375000  0.250000    0.00122070  23 t-inv F
  0.250000  0.375000 -0.125000    0.00122070  23 t-inv F
  0.125000 -0.250000 -0.375000    0.00122070  23 t-inv F
 -0.375000 -0.125000 -0.500000    0.00122070  23 t-inv F
 -0.375000 -0.500000 -0.125000    0.00122070  23 t-inv F
  0.250000 -0.125000  0.375000    0.00122070  23 t-inv F
  0.125000 -0.375000 -0.250000    0.00122070  23 t-inv F
 -0.125000  0.250000  0.375000    0.00122070  23 t-inv F
 -0.375000  0.125000 -0.250000    0.00122070  23 t-inv F
 -0.500000 -0.375000 -0.125000    0.00122070  23 t-inv F
 -0.125000 -0.375000 -0.500000    0.00122070  23 t-inv F
  0.375000  0.250000 -0.125000    0.00122070  23 t-inv F
 -0.250000  0.125000 -0.375000    0.00122070  23 t-inv F
  0.375000 -0.125000  0.250000    0.00122070  23 t-inv F
 -0.250000 -0.375000  0.125000    0.00122070  23 t-inv F
 -0.125000 -0.500000 -0.375000    0.00122070  23 t-inv F
  0.500000  0.125000  0.375000    0.00122070  23 t-inv F
  0.375000  0.500000  0.125000    0.00122070  23 t-inv F
  0.125000  0.375000  0.500000    0.00122070  23 t-inv F
  0.125000 -0.375000  0.375000    0.00349935  24 t-inv F
  0.375000  0.125000 -0.375000    0.00349935  24 t-inv F
 -0.375000 -0.250000 -0.750000    0.00349935  24 t-inv F
  0.375000  0.750000  0.500000    0.00349935  24 t-inv F
 -0.125000 -0.500000  0.250000    0.00349935  24 t-inv F
  0.250000 -0.500000 -0.125000    0.00349935  24 t-inv F
 -0.750000 -0.250000 -0.375000    0.00349935  24 t-inv F
  0.500000  0.750000  0.375000    0.00349935  24 t-inv F
  0.500000  0.375000  0.750000    0.00349935  24 t-inv F
  0.250000 -0.125000 -0.500000    0.00349935  24 t-inv F
 -0.750000 -0.375000 -0.250000    0.00349935  24 t-inv F
 -0.125000  0.250000 -0.500000    0.00349935  24 t-inv F
 -0.375000 -0.750000 -0.250000    0.00349935  24 t-inv F
  0.375000  0.500000  0.750000    0.00349935  24 t-inv F
  0.750000  0.500000  0.375000    0.00349935  24 t-inv F
 -0.500000  0.250000 -0.125000    0.00349935  24 t-inv F
 -0.250000 -0.750000 -0.375000    0.00349935  24 t-inv F
 -0.500000 -0.125000  0.250000    0.00349935  24 t-inv F
 -0.250000 -0.375000 -0.750000    0.00349935  24 t-inv F
  0.750000  0.375000  0.500000    0.00349935  24 t-inv F
 -0.375000  0.125000  0.375000    0.00349935  24 t-inv F
  0.375000 -0.375000  0.125000    0.00349935  24 t-inv F
  0.125000  0.375000 -0.375000    0.00349935  24 t-inv F
 -0.125000  0.000000  0.000000    0.00146484   2 t-inv T
  0.000000 -0.125000  0.000000    0.00146484   2 t-inv T
  0.000000  0.000000 -0.125000    0.00146484   2 t-inv T
  0.125000  0.125000  0.125000    0.00146484   2 t-inv T
 -0.250000  0.000000  0.000000    0.00244141   3 t-inv T
  0.000000 -0.250000  0.000000    0.00244141   3 t-inv T
  0.000000  0.000000 -0.250000    0.00244141   3 t-inv T
  0.250000  0.250000  0.250000    0.00244141   3 t-inv T
 -0.375000  0.000000  0.000000    0.00244141   4 t-inv T
  0.000000 -0.375000  0.000000    0.00244141   4 t-inv T
  0.000000  0.000000 -0.375000    0.00244141   4 t-inv T
  0.375000  0.375000  0.375000    0.00244141   4 t-inv T
 -0.250000 -0.125000  0.000000    0.00236003   7 t-inv T
  0.000000 -0.250000 -0.125000    0.00236003   7 t-inv T
 -0.125000  0.000000 -0.250000    0.00236003   7 t-inv T
  0.125000  0.125000 -0.125000    0.00236003   7 t-inv T
  0.250000  0.125000  0.250000    0.00236003   7 t-inv T
 -0.125000 -0.250000  0.000000    0.00236003   7 t-inv T
 -0.125000  0.125000  0.125000    0.00236003   7 t-inv T
  0.250000  0.250000  0.125000    0.00236003   7 t-inv T
  0.000000 -0.125000 -0.250000    0.00236003   7 t-inv T
  0.125000 -0.125000  0.125000    0.00236003   7 t-inv T
  0.125000  0.250000  0.250000    0.00236003   7 t-inv T
 -0.250000  0.000000 -0.125000    0.00236003   7 t-inv T
 -0.375000 -0.125000  0.000000    0.00146484   8 t-inv T
  0.000000 -0.375000 -0.125000    0.00146484   8 t-inv T
 -0.125000  0.000000 -0.375000    0.00146484   8 t-inv T
  0.125000  0.125000 -0.250000    0.00146484   8 t-inv T
  0.375000  0.250000  0.375000    0.00146484   8 t-inv T
 -0.125000 -0.375000  0.000000    0.00146484   8 t-inv T
 -0.250000  0.125000  0.125000    0.00146484   8 t-inv T
  0.375000  0.375000  0.250000    0.00146484   8 t-inv T
  0.000000 -0.125000 -0.375000    0.00146484   8 t-inv T
  0.125000 -0.250000  0.125000    0.00146484   8 t-inv T
  0.250000  0.375000  0.375000    0.00146484   8 t-inv T
 -0.375000  0.000000 -0.125000    0.00146484   8 t-inv T
 -0.500000 -0.125000  0.000000    0.00170898   9 t-inv T
  0.000000 -0.500000 -0.125000    0.00170898   9 t-inv T
 -0.125000  0.000000 -0.500000    0.00170898   9 t-inv T
  0.125000  0.125000 -0.375000    0.00170898   9 t-inv T
  0.500000  0.375000  0.500000    0.00170898   9 t-inv T
 -0.125000 -0.500000  0.000000    0.00170898   9 t-inv T
 -0.375000  0.125000  0.125000    0.00170898   9 t-inv T
  0.500000  0.500000  0.375000    0.00170898   9 t-inv T
  0.000000 -0.125000 -0.500000    0.00170898   9 t-inv T
  0.125000 -0.375000  0.125000    0.00170898   9 t-inv T
  0.375000  0.500000  0.500000    0.00170898   9 t-inv T
 -0.500000  0.000000 -0.125000    0.00170898   9 t-inv T
  0.375000 -0.125000  0.000000    0.00170898  10 t-inv T
  0.000000  0.375000 -0.125000    0.00170898  10 t-inv T
 -0.125000  0.000000  0.375000    0.00170898  10 t-inv T
  0.125000  0.125000  0.500000    0.00170898  10 t-inv T
 -0.375000 -0.500000 -0.375000    0.00170898  10 t-inv T
 -0.125000  0.375000  0.000000    0.00170898  10 t-inv T
  0.500000  0.125000  0.125000    0.00170898  10 t-inv T
 -0.375000 -0.375000 -0.500000    0.00170898  10 t-inv T
  0.000000 -0.125000  0.375000    0.00170898  10 t-inv T
  0.125000  0.500000  0.125000    0.00170898  10 t-inv T
 -0.500000 -0.375000 -0.375000    0.00170898  10 t-inv T
  0.375000  0.000000 -0.125000    0.00170898  10 t-inv T
  0.250000 -0.125000  0.000000    0.00162760  11 t-inv T
  0.000000  0.250000 -0.125000    0.00162760  11 t-inv T
 -0.125000  0.000000  0.250000    0.00162760  11 t-inv T
  0.125000  0.125000  0.375000    0.00162760  11 t-inv T
 -0.250000 -0.375000 -0.250000    0.00162760  11 t-inv T
 -0.125000  0.250000  0.000000    0.00162760  11 t-inv T
  0.375000  0.125000  0.125000    0.00162760  11 t-inv T
 -0.250000 -0.250000 -0.375000    0.00162760  11 t-inv T
  0.000000 -0.125000  0.250000    0.00162760  11 t-inv T
  0.125000  0.375000  0.125000    0.00162760  11 t-inv T
 -0.375000 -0.250000 -0.250000    0.00162760  11 t-inv T
  0.250000  0.000000 -0.125000    0.00162760  11 t-inv T
 -0.375000 -0.250000  0.000000    0.00301107  13 t-inv T
  0.000000 -0.375000 -0.250000    0.00301107  13 t-inv T
 -0.250000  0.000000 -0.375000    0.00301107  13 t-inv T
  0.250000  0.250000 -0.125000    0.00301107  13 t-inv T
  0.375000  0.125000  0.375000    0.00301107  13 t-inv T
 -0.250000 -0.375000  0.000000    0.00301107  13 t-inv T
 -0.125000  0.250000  0.250000    0.00301107  13 t-inv T
  0.375000  0.375000  0.125000    0.00301107  13 t-inv T
  0.000000 -0.250000 -0.375000    0.00301107  13 t-inv T
  0.250000 -0.125000  0.250000    0.00301107  13 t-inv T
  0.125000  0.375000  0.375000    0.00301107  13 t-inv T
 -0.375000  0.000000 -0.250000    0.00301107  13 t-inv T
 -0.500000 -0.250000  0.000000    0.00349935  14 t-inv T
  0.000000 -0.500000 -0.250000    0.00349935  14 t-inv T
 -0.250000  0.000000 -0.500000    0.00349935  14 t-inv T
  0.250000  0.250000 -0.250000    0.00349935  14 t-inv T
  0.500000  0.250000  0.500000    0.00349935  14 t-inv T
 -0.250000 -0.500000  0.000000    0.00349935  14 t-inv T
 -0.250000  0.250000  0.250000    0.00349935  14 t-inv T
  0.500000  0.500000  0.250000    0.00349935  14 t-inv T
  0.000000 -0.250000 -0.500000    0.00349935  14 t-inv T
  0.250000 -0.250000  0.250000    0.00349935  14 t-inv T
  0.250000  0.500000  0.500000    0.00349935  14 t-inv T
 -0.500000  0.000000 -0.250000    0.00349935  14 t-inv T
  0.375000 -0.250000  0.000000    0.00349935  15 t-inv T
  0.000000  0.375000 -0.250000    0.00349935  15 t-inv T
 -0.250000  0.000000  0.375000    0.00349935  15 t-inv T
  0.250000  0.250000  0.625000    0.00349935  15 t-inv T
 -0.375000 -0.625000 -0.375000    0.00349935  15 t-inv T
 -0.250000  0.375000  0.000000    0.00349935  15 t-inv T
  0.625000  0.250000  0.250000    0.00349935  15 t-inv T
 -0.375000 -0.375000 -0.625000    0.00349935  15 t-inv T
  0.000000 -0.250000  0.375000    0.00349935  15 t-inv T
  0.250000  0.625000  0.250000    0.00349935  15 t-inv T
 -0.625000 -0.375000 -0.375000    0.00349935  15 t-inv T
  0.375000  0.000000 -0.250000    0.00349935  15 t-inv T
 -0.500000 -0.375000  0.000000    0.00309245  18 t-inv T
  0.000000 -0.500000 -0.375000    0.00309245  18 t-inv T
 -0.375000  0.000000 -0.500000    0.00309245  18 t-inv T
  0.375000  0.375000 -0.125000    0.00309245  18 t-inv T
  0.500000  0.125000  0.500000    0.00309245  18 t-inv T
 -0.375000 -0.500000  0.000000    0.00309245  18 t-inv T
 -0.125000  0.375000  0.375000    0.00309245  18 t-inv T
  0.500000  0.500000  0.125000    0.00309245  18 t-inv T
  0.000000 -0.375000 -0.500000    0.00309245  18 t-inv T
  0.375000 -0.125000  0.375000    0.00309245  18 t-inv T
  0.125000  0.500000  0.500000    0.00309245  18 t-inv T
 -0.500000  0.000000 -0.375000    0.00309245  18 t-inv T
 -0.500000 -0.250000 -0.125000    0.00089518  21 t-inv T
 -0.125000 -0.500000 -0.250000    0.00089518  21 t-inv T
 -0.250000 -0.125000 -0.500000    0.00089518  21 t-inv T
  0.250000  0.125000 -0.250000    0.00089518  21 t-inv T
  0.500000  0.250000  0.375000    0.00089518  21 t-inv T
  0.125000 -0.375000 -0.125000    0.00089518  21 t-inv T
 -0.125000 -0.375000  0.125000    0.00089518  21 t-inv T
 -0.250000  0.125000  0.250000    0.00089518  21 t-inv T
  0.375000  0.250000  0.500000    0.00089518  21 t-inv T
  0.375000  0.500000  0.250000    0.00089518  21 t-inv T
 -0.125000  0.125000 -0.375000    0.00089518  21 t-inv T
 -0.250000  0.250000  0.125000    0.00089518  21 t-inv T
  0.125000 -0.125000 -0.375000    0.00089518  21 t-inv T
  0.250000 -0.250000  0.125000    0.00089518  21 t-inv T
  0.500000  0.375000  0.250000    0.00089518  21 t-inv T
  0.250000  0.375000  0.500000    0.00089518  21 t-inv T
 -0.375000 -0.125000  0.125000    0.00089518  21 t-inv T
  0.125000 -0.250000  0.250000    0.00089518  21 t-inv T
 -0.375000  0.125000 -0.125000    0.00089518  21 t-inv T
  0.125000  0.250000 -0.250000    0.00089518  21 t-inv T
  0.250000  0.500000  0.375000    0.00089518  21 t-inv T
 -0.500000 -0.125000 -0.250000    0.00089518  21 t-inv T
 -0.250000 -0.500000 -0.125000    0.00089518  21 t-inv T
 -0.125000 -0.250000 -0.500000    0.00089518  21 t-inv T
  0.375000 -0.375000 -0.125000    0.00349935  24 t-inv T
 -0.125000  0.375000 -0.375000    0.00349935  24 t-inv T
 -0.375000 -0.125000  0.375000    0.00349935  24 t-inv T
  0.375000  0.250000  0.750000    0.00349935  24 t-inv T
 -0.375000 -0.750000 -0.500000    0.00349935  24 t-inv T
  0.125000  0.500000 -0.250000    0.00349935  24 t-inv T
 -0.250000  0.500000  0.125000    0.00349935  24 t-inv T
  0.750000  0.250000  0.375000    0.00349935  24 t-inv T
 -0.500000 -0.750000 -0.375000    0.00349935  24 t-inv T
 -0.500000 -0.375000 -0.750000    0.00349935  24 t-inv T
 -0.250000  0.125000  0.500000    0.00349935  24 t-inv T
  0.750000  0.375000  0.250000    0.00349935  24 t-inv T
  0.125000 -0.250000  0.500000    0.00349935  24 t-inv T
  0.375000  0.750000  0.250000    0.00349935  24 t-inv T
 -0.375000 -0.500000 -0.750000    0.00349935  24 t-inv T
 -0.750000 -0.500000 -0.375000    0.00349935  24 t-inv T
  0.500000 -0.250000  0.125000    0.00349935  24 t-inv T
  0.250000  0.750000  0.375000    0.00349935  24 t-inv T
  0.500000  0.125000 -0.250000    0.00349935  24 t-inv T
  0.250000  0.375000  0.750000    0.00349935  24 t-inv T
 -0.750000 -0.375000 -0.500000    0.00349935  24 t-inv T
  0.375000 -0.125000 -0.375000    0.00349935  24 t-inv T
 -0.375000  0.375000 -0.125000    0.00349935  24 t-inv T
 -0.125000 -0.375000  0.375000    0.00349935  24 t-inv T


--------------------------------------------------------------------------------------------------------




 Dimension of arrays:
   k-points           NKPTS =     84   k-points in BZ     NKDIM =    515   number of bands    NBANDS=     16
   number of dos      NEDOS =   2001   number of ions     NIONS =      2
   non local maximal  LDIM  =      5   non local SUM 2l+1 LMDIM =     13
   total plane-waves  NPLWV =   8000
   max r-space proj   IRMAX =   2430   max aug-charges    IRDMAX= 113815
   dimension x,y,z NGX =    20 NGY =   20 NGZ =   20
   dimension x,y,z NGXF=    40 NGYF=   40 NGZF=   40
   support grid    NGXF=    80 NGYF=   80 NGZF=   80
   ions per type =               1   1
   NGX,Y,Z   is equivalent  to a cutoff of   8.63,  8.63,  8.63 a.u.
   NGXF,Y,Z  is equivalent  to a cutoff of  17.25, 17.25, 17.25 a.u.

 SYSTEM =  unknown system                          
 POSCAR =  Primitive Cell                          

 Startparameter for this run:
   NWRITE =      2    write-flag & timer
   PREC   = normal    normal or accurate (medium, high low for compatibility)
   ISTART =      1    job   : 0-new  1-cont  2-samecut
   ICHARG =      0    charge: 1-file 2-atom 10-const
   ISPIN  =      1    spin polarized calculation?
   LNONCOLLINEAR =      F non collinear calculations
   LSORBIT =      F    spin-orbit coupling
   INIWAV =      1    electr: 0-lowe 1-rand  2-diag
   LASPH  =      F    aspherical Exc in radial PAW
   METAGGA=      F    non-selfconsistent MetaGGA calc.

 Electronic Relaxation 1
   ENCUT  =  400.0 eV  29.40 Ry    5.42 a.u.   6.29  6.29  6.29*2*pi/ulx,y,z
   ENINI  =  400.0     initial cutoff
   ENAUG  =  342.9 eV  augmentation charge cutoff
   NELM   =     60;   NELMIN=  2; NELMDL=  0     # of ELM steps 
   EDIFF  = 0.1E-07   stopping-criterion for ELM
   LREAL  =      T    real-space projection
   NLSPLINE    = F    spline interpolate recip. space projectors
   LCOMPAT=      F    compatible to vasp.4.4
   GGA_COMPAT  = T    GGA compatible to vasp.4.4-vasp.4.6
   LMAXPAW     = -100 max onsite density
   LMAXMIX     =    2 max onsite mixed and CHGCAR
   VOSKOWN=      0    Vosko Wilk Nusair interpolation
   ROPT   =   -0.00050  -0.00050
 Ionic relaxation
   EDIFFG = 0.1E-06   stopping-criterion for IOM
   NSW    =      0    number of steps for IOM
   NBLOCK =      1;   KBLOCK =      1    inner block; outer block 
   IBRION =     -1    ionic relax: 0-MD 1-quasi-New 2-CG
   NFREE  =      0    steps in history (QN), initial steepest desc. (CG)
   ISIF   =      0    stress and relaxation
   IWAVPR =     10    prediction:  0-non 1-charg 2-wave 3-comb
   ISYM   =      3    0-nonsym 1-usesym 2-fastsym
   LCORR  =      T    Harris-Foulkes like correction to forces

   POTIM  = 0.5000    time-step for ionic-motion
   TEIN   =    0.0    initial temperature
   TEBEG  =    0.0;   TEEND  =   0.0 temperature during run
   SMASS  =  -3.00    Nose mass-parameter (am)
   estimated Nose-frequenzy (Omega)   =  0.10E-29 period in steps =****** mass=  -0.339E-27a.u.
   SCALEE = 1.0000    scale energy and forces
   NPACO  =    256;   APACO  = 16.0  distance and # of slots for P.C.
   PSTRESS=    0.0 pullay stress

  Mass of Ions in am
   POMASS =  30.97 69.72
  Ionic Valenz
   ZVAL   =   5.00  3.00
  Atomic Wigner-Seitz radii
   RWIGS  =  -1.00 -1.00
  virtual crystal weights 
   VCA    =   1.00  1.00
   NELECT =       8.0000    total number of electrons
   NUPDOWN=      -1.0000    fix difference up-down

 DOS related values:
   EMIN   =  10.00;   EMAX   =-10.00  energy-range for DOS
   EFERMI =   0.00
   ISMEAR =     0;   SIGMA  =   0.20  broadening in eV -4-tet -1-fermi 0-gaus

 Electronic relaxation 2 (details)
   IALGO  =     58    algorithm
   LDIAG  =      T    sub-space diagonalisation (order eigenvalues)
   LSUBROT=      F    optimize rotation matrix (better conditioning)
   TURBO    =      0    0=normal 1=particle mesh
   IRESTART =      0    0=no restart 2=restart with 2 vectors
   NREBOOT  =      0    no. of reboots
   NMIN     =      0    reboot dimension
   EREF     =   0.00    reference energy to select bands
   IMIX   =      4    mixing-type and parameters
     AMIX     =   0.40;   BMIX     =  1.00
     AMIX_MAG =   1.60;   BMIX_MAG =  1.00
     AMIN     =   0.10
     WC   =   100.;   INIMIX=   1;  MIXPRE=   1;  MAXMIX= -45

 Intra band minimization:
   WEIMIN = 0.0000     energy-eigenvalue tresh-hold
   EBREAK =  0.16E-09  absolut break condition
   DEPER  =   0.30     relativ break condition  

   TIME   =   0.40     timestep for ELM

  volume/ion in A,a.u.               =      20.24       136.59
  Fermi-wavevector in a.u.,A,eV,Ry     =   0.953576  1.801997 12.371866  0.909306
  Thomas-Fermi vector in A             =   2.082243
 
 Write flags
   LWAVE        =      T    write WAVECAR
   LDOWNSAMPLE  =      F    k-point downsampling of WAVECAR
   LCHARG       =      T    write CHGCAR
   LVTOT        =      F    write LOCPOT, total local potential
   LVHAR        =      F    write LOCPOT, Hartree potential only
   LELF         =      F    write electronic localiz. function (ELF)
   LORBIT       =     11    0 simple, 1 ext, 2 COOP (PROOUT), +10 PAW based schemes


 Dipole corrections
   LMONO  =      F    monopole corrections only (constant potential shift)
   LDIPOL =      F    correct potential (dipole corrections)
   IDIPOL =      0    1-x, 2-y, 3-z, 4-all directions 
   EPSILON=  1.0000000 bulk dielectric constant

 Exchange correlation treatment:
   GGA     =    --    GGA type
   LEXCH   =     8    internal setting for exchange type
   VOSKOWN=      0    Vosko Wilk Nusair interpolation
   EXXOEP  =     0    0=HF, 1=EXX-LHF (local Hartree Fock) 2=EXX OEP
   LHFCALC =     T    Hartree Fock is set to
   LSYMGRAD=     F    symmetrize gradient (conserves proper symmetry)
   PRECFOCK=normal    Normal, Fast or Accurate (Low or Medium for compatibility)
   LRHFCALC=     F    long range Hartree Fock
   LRSCOR  =     F    long range correlation only (use DFT for short range part)
   LTHOMAS =     F    Thomas Fermi screening in HF
   LMODELHF=     F    short range full HF, long range fraction AEXX
   ENCUT4O =  -1.0   cutoff for four orbital integrals eV
   LMAXFOCK=     4    L truncation for augmentation on plane wave grid
   LMAXFOCKAE=  -1    L truncation for all-electron charge restoration on plane wave grid
   NMAXFOCKAE=   1    number of basis functions for all-electron charge restoration
   LFOCKAEDFT=     F  apply the AE augmentation even for DFT
   NKREDX  =     1    reduce k-point grid by
   NKREDY  =     1    reduce k-point grid by
   NKREDZ  =     1    reduce k-point grid by
   SHIFTRED=     F    shift reduced grid of Gamma
   HFKIDENT=     F    idential grid for each k-point
   ODDONLY =     F    use only odd q-grid points
   EVENONLY=     F    use only even q-grid points
   HFALPHA =   -1.0000 decay constant for conv. correction
   MCALPHA =    0.0000 extent of test-charge in conv. correction in multipole expansion
   AEXX    =    0.2500 exact exchange contribution
   HFSCREEN=    0.2000 screening length (either q_TF or 0.3 A-1)
   HFSCREENC=   0.2000 screening length for correlation (either q_TF or 0.3 A-1)
   HFRCUT  =    0.0000 spherical cutoff for potential kernel
   ALDAX   =    0.7500 LDA exchange part
   AGGAX   =    0.7500 GGA exchange part
   ALDAC   =    1.0000 LDA correlation
   AGGAC   =    1.0000 GGA correlation
   ENCUTFOCK=  -1.0 apply spherical cutoff to Coloumb kernel
   NBANDSGWLOW=     1    first orbital included in HF term
   NBLOCK_FOCK=    64    blocking factor in FOCK_ACC
 Linear response parameters
   LEPSILON=     F    determine dielectric tensor
   LRPA    =     F    only Hartree local field effects (RPA)
   LNABLA  =     F    use nabla operator in PAW spheres
   LVEL    =     F    velocity operator in full k-point grid
   LINTERFAST=   F  fast interpolation
   KINTER  =     0    interpolate to denser k-point grid
   CSHIFT  =0.1000    complex shift for real part using Kramers Kronig
   OMEGAMAX=  -1.0    maximum frequency
   DEG_THRESHOLD= 0.2000000E-02 threshold for treating states as degnerate
   RTIME   =   -0.100 relaxation time in fs
  (WPLASMAI=    0.000 imaginary part of plasma frequency in eV, 0.658/RTIME)
   DFIELD  = 0.0000000 0.0000000 0.0000000 field for delta impulse in time
 
 Orbital magnetization related:
   ORBITALMAG=     F  switch on orbital magnetization
   LCHIMAG   =     F  perturbation theory with respect to B field
   DQ        =  0.001000  dq finite difference perturbation B field
   LLRAUG    =     F  two centre corrections for induced B field



--------------------------------------------------------------------------------------------------------


 Static calculation
 charge density and potential will be updated during run
 non-spin polarized calculation
 Conjugate gradient for all bands (Freysoldt, et al. PRB 79, 241103 (2009))
 preconditioned conjugated gradient                                        
 perform sub-space diagonalisation
    before iterative eigenvector-optimisation
 modified Broyden-mixing scheme, WC =      100.0
 initial mixing is a Kerker type mixing with AMIX =  0.4000 and BMIX =      1.0000
 Hartree-type preconditioning will be used
 using additional bands           12
 real space projection scheme for non local part
 use partial core corrections
 no Harris-corrections to forces 
 use gradient corrections 
 use of overlap-Matrix (Vanderbilt PP)
 Gauss-broadening in eV      SIGMA  =   0.20


--------------------------------------------------------------------------------------------------------


  energy-cutoff  :      400.00
  volume of cell :       40.48
      direct lattice vectors                 reciprocal lattice vectors
     0.000000000  2.725250000  2.725250000    -0.183469406  0.183469406  0.183469406
     2.725250000  0.000000000  2.725250000     0.183469406 -0.183469406  0.183469406
     2.725250000  2.725250000  0.000000000     0.183469406  0.183469406 -0.183469406

  length of vectors
     3.854085511  3.854085511  3.854085511     0.317778334  0.317778334  0.317778334


 
 old parameters found on file WAVECAR:
  energy-cutoff  :      400.00
  volume of cell :       40.48
      direct lattice vectors                 reciprocal lattice vectors
     0.000000000  2.725250000  2.725250000    -0.183469406  0.183469406  0.183469406
     2.725250000  0.000000000  2.725250000     0.183469406 -0.183469406  0.183469406
     2.725250000  2.725250000  0.000000000     0.183469406  0.183469406 -0.183469406

  length of vectors

 
 k-points in units of 2pi/SCALE and weight: # Don't Edit This Line!     24    10    
   0.00000000  0.00000000  0.00000000       0.004
  -0.12500000  0.12500000  0.12500000       0.012
  -0.25000000  0.25000000  0.25000000       0.020
  -0.37500000  0.37500000  0.37500000       0.020
  -0.50000000  0.50000000  0.50000000       0.012
   0.00000000  0.00000000  0.25000000       0.010
  -0.12500000  0.12500000  0.37500000       0.057
  -0.25000000  0.25000000  0.50000000       0.035
  -0.37500000  0.37500000  0.62500000       0.041
   0.50000000 -0.50000000 -0.25000000       0.041
   0.37500000 -0.37500000 -0.12500000       0.039
   0.00000000  0.00000000  0.50000000       0.004
  -0.12500000  0.12500000  0.62500000       0.072
  -0.25000000  0.25000000  0.75000000       0.084
   0.62500000 -0.62500000 -0.12500000       0.084
   0.50000000 -0.50000000  0.00000000       0.035
   0.00000000  0.00000000  0.75000000       0.004
  -0.12500000  0.12500000  0.87500000       0.074
   0.75000000 -0.75000000  0.00000000       0.066
   0.00000000  0.25000000  0.50000000       0.012
  -0.12500000  0.37500000  0.62500000       0.043
   0.75000000 -0.50000000 -0.25000000       0.035
   0.00000000  0.25000000  0.75000000       0.029
   0.87500000 -0.62500000 -0.12500000       0.168
   0.00000000  0.00000000  0.00000000       0.000
   0.00000000  0.11111111  0.00000000       0.000
   0.00000000  0.22222222  0.00000000       0.000
   0.00000000  0.33333333  0.00000000       0.000
   0.00000000  0.44444444  0.00000000       0.000
   0.00000000  0.55555556  0.00000000       0.000
   0.00000000  0.66666667  0.00000000       0.000
   0.00000000  0.77777778  0.00000000       0.000
   0.00000000  0.88888889  0.00000000       0.000
   0.00000000  1.00000000  0.00000000       0.000
   0.00000000  1.00000000  0.00000000       0.000
   0.02777778  1.00000000  0.02777778       0.000
   0.05555556  1.00000000  0.05555556       0.000
   0.08333333  1.00000000  0.08333333       0.000
   0.11111111  1.00000000  0.11111111       0.000
   0.13888889  1.00000000  0.13888889       0.000
   0.16666667  1.00000000  0.16666667       0.000
   0.19444444  1.00000000  0.19444444       0.000
   0.22222222  1.00000000  0.22222222       0.000
   0.25000000  1.00000000  0.25000000       0.000
   0.75000000  0.75000000  0.00000000       0.000
   0.66666667  0.66666667 -0.00000000       0.000
   0.58333333  0.58333333  0.00000000       0.000
   0.50000000  0.50000000  0.00000000       0.000
   0.41666667  0.41666667 -0.00000000       0.000
   0.33333333  0.33333333  0.00000000       0.000
   0.25000000  0.25000000  0.00000000       0.000
   0.16666667  0.16666667 -0.00000000       0.000
   0.08333333  0.08333333  0.00000000       0.000
   0.00000000  0.00000000  0.00000000       0.000
   0.00000000  0.00000000  0.00000000       0.000
   0.05555556  0.05555556  0.05555556       0.000
   0.11111111  0.11111111  0.11111111       0.000
   0.16666667  0.16666667  0.16666667       0.000
   0.22222222  0.22222222  0.22222222       0.000
   0.27777778  0.27777778  0.27777778       0.000
   0.33333333  0.33333333  0.33333333       0.000
   0.38888889  0.38888889  0.38888889       0.000
   0.44444444  0.44444444  0.44444444       0.000
   0.50000000  0.50000000  0.50000000       0.000
   0.50000000  0.50000000  0.50000000       0.000
   0.50000000  0.55555556  0.44444444       0.000
   0.50000000  0.61111111  0.38888889       0.000
   0.50000000  0.66666667  0.33333333       0.000
   0.50000000  0.72222222  0.27777778       0.000
   0.50000000  0.77777778  0.22222222       0.000
   0.50000000  0.83333333  0.16666667       0.000
   0.50000000  0.88888889  0.11111111       0.000
   0.50000000  0.94444444  0.05555556       0.000
   0.50000000  1.00000000  0.00000000       0.000
   0.50000000  1.00000000  0.00000000       0.000
   0.44444444  1.00000000  0.00000000       0.000
   0.38888889  1.00000000  0.00000000       0.000
   0.33333333  1.00000000  0.00000000       0.000
   0.27777778  1.00000000  0.00000000       0.000
   0.22222222  1.00000000 -0.00000000       0.000
   0.16666667  1.00000000  0.00000000       0.000
   0.11111111  1.00000000 -0.00000000       0.000
   0.05555556  1.00000000  0.00000000       0.000
   0.00000000  1.00000000  0.00000000       0.000
 
 k-points in reciprocal lattice and weights: # Don't Edit This Line!     24    10    
   0.00000000  0.00000000  0.00000000       0.004
   0.12500000  0.00000000  0.00000000       0.012
   0.25000000  0.00000000  0.00000000       0.020
   0.37500000  0.00000000  0.00000000       0.020
   0.50000000  0.00000000  0.00000000       0.012
   0.12500000  0.12500000  0.00000000       0.010
   0.25000000  0.12500000  0.00000000       0.057
   0.37500000  0.12500000  0.00000000       0.035
   0.50000000  0.12500000  0.00000000       0.041
  -0.37500000  0.12500000  0.00000000       0.041
  -0.25000000  0.12500000  0.00000000       0.039
   0.25000000  0.25000000  0.00000000       0.004
   0.37500000  0.25000000  0.00000000       0.072
   0.50000000  0.25000000  0.00000000       0.084
  -0.37500000  0.25000000  0.00000000       0.084
  -0.25000000  0.25000000  0.00000000       0.035
   0.37500000  0.37500000  0.00000000       0.004
   0.50000000  0.37500000  0.00000000       0.074
  -0.37500000  0.37500000  0.00000000       0.066
   0.37500000  0.25000000  0.12500000       0.012
   0.50000000  0.25000000  0.12500000       0.043
  -0.37500000  0.25000000  0.12500000       0.035
   0.50000000  0.37500000  0.12500000       0.029
  -0.37500000  0.37500000  0.12500000       0.168
   0.00000000  0.00000000  0.00000000       0.000
   0.05555556  0.00000000  0.05555556       0.000
   0.11111111  0.00000000  0.11111111       0.000
   0.16666667  0.00000000  0.16666667       0.000
   0.22222222  0.00000000  0.22222222       0.000
   0.27777778  0.00000000  0.27777778       0.000
   0.33333333  0.00000000  0.33333333       0.000
   0.38888889  0.00000000  0.38888889       0.000
   0.44444444  0.00000000  0.44444444       0.000
   0.50000000  0.00000000  0.50000000       0.000
   0.50000000  0.00000000  0.50000000       0.000
   0.51388889  0.02777778  0.51388889       0.000
   0.52777778  0.05555556  0.52777778       0.000
   0.54166667  0.08333333  0.54166667       0.000
   0.55555556  0.11111111  0.55555556       0.000
   0.56944444  0.13888889  0.56944444       0.000
   0.58333333  0.16666667  0.58333333       0.000
   0.59722222  0.19444444  0.59722222       0.000
   0.61111111  0.22222222  0.61111111       0.000
   0.62500000  0.25000000  0.62500000       0.000
   0.37500000  0.37500000  0.75000000       0.000
   0.33333333  0.33333333  0.66666667       0.000
   0.29166667  0.29166667  0.58333333       0.000
   0.25000000  0.25000000  0.50000000       0.000
   0.20833333  0.20833333  0.41666667       0.000
   0.16666667  0.16666667  0.33333333       0.000
   0.12500000  0.12500000  0.25000000       0.000
   0.08333333  0.08333333  0.16666667       0.000
   0.04166667  0.04166667  0.08333333       0.000
   0.00000000  0.00000000  0.00000000       0.000
   0.00000000  0.00000000  0.00000000       0.000
   0.05555556  0.05555556  0.05555556       0.000
   0.11111111  0.11111111  0.11111111       0.000
   0.16666667  0.16666667  0.16666667       0.000
   0.22222222  0.22222222  0.22222222       0.000
   0.27777778  0.27777778  0.27777778       0.000
   0.33333333  0.33333333  0.33333333       0.000
   0.38888889  0.38888889  0.38888889       0.000
   0.44444444  0.44444444  0.44444444       0.000
   0.50000000  0.50000000  0.50000000       0.000
   0.50000000  0.50000000  0.50000000       0.000
   0.50000000  0.47222222  0.52777778       0.000
   0.50000000  0.44444444  0.55555556       0.000
   0.50000000  0.41666667  0.58333333       0.000
   0.50000000  0.38888889  0.61111111       0.000
   0.50000000  0.36111111  0.63888889       0.000
   0.50000000  0.33333333  0.66666667       0.000
   0.50000000  0.30555556  0.69444444       0.000
   0.50000000  0.27777778  0.72222222       0.000
   0.50000000  0.25000000  0.75000000       0.000
   0.50000000  0.25000000  0.75000000       0.000
   0.50000000  0.22222222  0.72222222       0.000
   0.50000000  0.19444444  0.69444444       0.000
   0.50000000  0.16666667  0.66666667       0.000
   0.50000000  0.13888889  0.63888889       0.000
   0.50000000  0.11111111  0.61111111       0.000
   0.50000000  0.08333333  0.58333333       0.000
   0.50000000  0.05555556  0.55555556       0.000
   0.50000000  0.02777778  0.52777778       0.000
   0.50000000  0.00000000  0.50000000       0.000
 
 position of ions in fractional coordinates (direct lattice) 
   0.75000000  0.75000000  0.75000000
   0.00000000  0.00000000  0.00000000
 
 position of ions in cartesian coordinates  (Angst):
   4.08787500  4.08787500  4.08787500
   0.00000000  0.00000000  0.00000000
 


--------------------------------------------------------------------------------------------------------


 k-point  1 :   0.0000 0.0000 0.0000  plane waves:     725
 k-point  2 :   0.1250 0.0000 0.0000  plane waves:     728
 k-point  3 :   0.2500 0.0000 0.0000  plane waves:     745
 k-point  4 :   0.3750 0.0000 0.0000  plane waves:     748
 k-point  5 :   0.5000 0.0000 0.0000  plane waves:     754
 k-point  6 :   0.1250 0.1250 0.0000  plane waves:     729
 k-point  7 :   0.2500 0.1250 0.0000  plane waves:     738
 k-point  8 :   0.3750 0.1250 0.0000  plane waves:     736
 k-point  9 :   0.5000 0.1250 0.0000  plane waves:     738
 k-point 10 :  -0.3750 0.1250 0.0000  plane waves:     735
 k-point 11 :  -0.2500 0.1250 0.0000  plane waves:     737
 k-point 12 :   0.2500 0.2500 0.0000  plane waves:     729
 k-point 13 :   0.3750 0.2500 0.0000  plane waves:     734
 k-point 14 :   0.5000 0.2500 0.0000  plane waves:     735
 k-point 15 :  -0.3750 0.2500 0.0000  plane waves:     728
 k-point 16 :  -0.2500 0.2500 0.0000  plane waves:     742
 k-point 17 :   0.3750 0.3750 0.0000  plane waves:     733
 k-point 18 :   0.5000 0.3750 0.0000  plane waves:     737
 k-point 19 :  -0.3750 0.3750 0.0000  plane waves:     724
 k-point 20 :   0.3750 0.2500 0.1250  plane waves:     737
 k-point 21 :   0.5000 0.2500 0.1250  plane waves:     734
 k-point 22 :  -0.3750 0.2500 0.1250  plane waves:     740
 k-point 23 :   0.5000 0.3750 0.1250  plane waves:     734
 k-point 24 :  -0.3750 0.3750 0.1250  plane waves:     731
 k-point 25 :   0.0000 0.0000 0.0000  plane waves:     725
 k-point 26 :   0.0556 0.0000 0.0556  plane waves:     729
 k-point 27 :   0.1111 0.0000 0.1111  plane waves:     733
 k-point 28 :   0.1667 0.0000 0.1667  plane waves:     737
 k-point 29 :   0.2222 0.0000 0.2222  plane waves:     729
 k-point 30 :   0.2778 0.0000 0.2778  plane waves:     729
 k-point 31 :   0.3333 0.0000 0.3333  plane waves:     717
 k-point 32 :   0.3889 0.0000 0.3889  plane waves:     741
 k-point 33 :   0.4444 0.0000 0.4444  plane waves:     740
 k-point 34 :   0.5000 0.0000 0.5000  plane waves:     740
 k-point 35 :   0.5000 0.0000 0.5000  plane waves:     740
 k-point 36 :   0.5139 0.0278 0.5139  plane waves:     740
 k-point 37 :   0.5278 0.0556 0.5278  plane waves:     736
 k-point 38 :   0.5417 0.0833 0.5417  plane waves:     736
 k-point 39 :   0.5556 0.1111 0.5556  plane waves:     734
 k-point 40 :   0.5694 0.1389 0.5694  plane waves:     736
 k-point 41 :   0.5833 0.1667 0.5833  plane waves:     734
 k-point 42 :   0.5972 0.1944 0.5972  plane waves:     736
 k-point 43 :   0.6111 0.2222 0.6111  plane waves:     734
 k-point 44 :   0.6250 0.2500 0.6250  plane waves:     724
 k-point 45 :   0.3750 0.3750 0.7500  plane waves:     724
 k-point 46 :   0.3333 0.3333 0.6667  plane waves:     730
 k-point 47 :   0.2917 0.2917 0.5833  plane waves:     728
 k-point 48 :   0.2500 0.2500 0.5000  plane waves:     742
 k-point 49 :   0.2083 0.2083 0.4167  plane waves:     734
 k-point 50 :   0.1667 0.1667 0.3333  plane waves:     740
 k-point 51 :   0.1250 0.1250 0.2500  plane waves:     737
 k-point 52 :   0.0833 0.0833 0.1667  plane waves:     731
 k-point 53 :   0.0417 0.0417 0.0833  plane waves:     731
 k-point 54 :   0.0000 0.0000 0.0000  plane waves:     725
 k-point 55 :   0.0000 0.0000 0.0000  plane waves:     725
 k-point 56 :   0.0556 0.0556 0.0556  plane waves:     731
 k-point 57 :   0.1111 0.1111 0.1111  plane waves:     728
 k-point 58 :   0.1667 0.1667 0.1667  plane waves:     730
 k-point 59 :   0.2222 0.2222 0.2222  plane waves:     733
 k-point 60 :   0.2778 0.2778 0.2778  plane waves:     751
 k-point 61 :   0.3333 0.3333 0.3333  plane waves:     751
 k-point 62 :   0.3889 0.3889 0.3889  plane waves:     745
 k-point 63 :   0.4444 0.4444 0.4444  plane waves:     736
 k-point 64 :   0.5000 0.5000 0.5000  plane waves:     754
 k-point 65 :   0.5000 0.5000 0.5000  plane waves:     754
 k-point 66 :   0.5000 0.4722 0.5278  plane waves:     738
 k-point 67 :   0.5000 0.4444 0.5556  plane waves:     738
 k-point 68 :   0.5000 0.4167 0.5833  plane waves:     738
 k-point 69 :   0.5000 0.3889 0.6111  plane waves:     732
 k-point 70 :   0.5000 0.3611 0.6389  plane waves:     730
 k-point 71 :   0.5000 0.3333 0.6667  plane waves:     734
 k-point 72 :   0.5000 0.3056 0.6944  plane waves:     732
 k-point 73 :   0.5000 0.2778 0.7222  plane waves:     734
 k-point 74 :   0.5000 0.2500 0.7500  plane waves:     724
 k-point 75 :   0.5000 0.2500 0.7500  plane waves:     724
 k-point 76 :   0.5000 0.2222 0.7222  plane waves:     734
 k-point 77 :   0.5000 0.1944 0.6944  plane waves:     730
 k-point 78 :   0.5000 0.1667 0.6667  plane waves:     738
 k-point 79 :   0.5000 0.1389 0.6389  plane waves:     738
 k-point 80 :   0.5000 0.1111 0.6111  plane waves:     734
 k-point 81 :   0.5000 0.0833 0.5833  plane waves:     728
 k-point 82 :   0.5000 0.0556 0.5556  plane waves:     732
 k-point 83 :   0.5000 0.0278 0.5278  plane waves:     740
 k-point 84 :   0.5000 0.0000 0.5000  plane waves:     740

 maximum and minimum number of plane-waves per node :       754      717

 maximum number of plane-waves:       754
 maximum index in each direction: 
   IXMAX=    6   IYMAX=    6   IZMAX=    6
   IXMIN=   -6   IYMIN=   -6   IZMIN=   -6


 serial   3D FFT for wavefunctions
 parallel 3D FFT for charge:
    minimum data exchange during FFTs selected (reduces bandwidth)

 
 Radii for the augmentation spheres in the non-local exchange
 for species   1 augmentation radius   1.022 (default was   0.959)
       energy cutoff for augmentation   1600.0
 for species   2 augmentation radius   1.420 (default was   1.277)
       energy cutoff for augmentation   1600.0
 Maximum index for augmentation-charges in exchange         2347
  SETUP_FOCK is finished

 total amount of memory used by VASP MPI-rank0    35681. kBytes
=======================================================================

   base      :      30000. kBytes
   nonlr-proj:       1122. kBytes
   fftplans  :        647. kBytes
   grid      :        604. kBytes
   one-center:         16. kBytes
   HF        :         67. kBytes
   wavefun   :       3225. kBytes
 
     INWAV:  cpu time   10.6214: real time   10.6236
 Broyden mixing: mesh for mixing (old mesh)
   NGX = 13   NGY = 13   NGZ = 13
  (NGX  = 40   NGY  = 40   NGZ  = 40)
  gives a total of   2197 points

 charge density for first step will be calculated from the start-wavefunctions


--------------------------------------------------------------------------------------------------------


 Maximum index for non-local projection operator         2315
 Maximum index for augmentation-charges         6529 (set IRDMAX)


--------------------------------------------------------------------------------------------------------


 initial charge from wavefunction
 First call to EWALD:  gamma=   0.516
 Maximum number of real-space cells 3x 3x 3
 Maximum number of reciprocal cells 3x 3x 3

    FEWALD:  cpu time    0.0020: real time    0.0019


--------------------------------------- Iteration      1(   1)  ---------------------------------------


    POTLOK:  cpu time    0.0260: real time    0.0262
    SETDIJ:  cpu time    0.2150: real time    0.2152
    TRIAL :  cpu time  289.4550: real time  289.4999
    CORREC:  cpu time  291.3567: real time  291.4360
    CHARGE:  cpu time    0.0870: real time    0.0862
    --------------------------------------------
      LOOP:  cpu time  581.1407: real time  581.2665

 eigenvalue-minimisations  :     0
 total energy-change (2. order) :-0.1214972E+02  (-0.3209490E-01)
 number of electron       8.0000000 magnetization 
 augmentation part       -0.9920928 magnetization 

 Free energy of the ion-electron system (eV)
  ---------------------------------------------------
  alpha Z        PSCENC =        15.71347255
  Ewald energy   TEWEN  =      -237.69805893
  -Hartree energ DENC   =       -23.77457407
  -exchange      EXHF   =        11.74257942
  -V(xc)+E(xc)   XCENC  =       -12.76113645
  PAW double counting   =       111.59721758      -86.21450816
  entropy T*S    EENTRO =        -0.00000000
  eigenvalues    EBANDS =       -22.28373481
  atomic energy  EATOM  =       231.52902276
  ---------------------------------------------------
  free energy    TOTEN  =       -12.14972011 eV

  energy without entropy =      -12.14972011  energy(sigma->0) =      -12.14972011
  exchange ACFDT corr.  =        -0.00000000  see jH, gK, PRB 81, 115126


--------------------------------------------------------------------------------------------------------




--------------------------------------- Iteration      1(   2)  ---------------------------------------


    POTLOK:  cpu time    0.2080: real time    0.2081
    SETDIJ:  cpu time    0.2140: real time    0.2139
    TRIAL :  cpu time  291.8736: real time  291.9558
    CORREC:  cpu time  292.0796: real time  292.1570
    CHARGE:  cpu time    0.0860: real time    0.0864
    --------------------------------------------
      LOOP:  cpu time  584.4751: real time  584.6414

 eigenvalue-minimisations  :     0
 total energy-change (2. order) :-0.3234894E-01  (-0.7329880E-02)
 number of electron       8.0000000 magnetization 
 augmentation part       -0.9841075 magnetization 

 Free energy of the ion-electron system (eV)
  ---------------------------------------------------
  alpha Z        PSCENC =        15.71347255
  Ewald energy   TEWEN  =      -237.69805893
  -Hartree energ DENC   =       -23.58062101
  -exchange      EXHF   =        11.75348166
  -V(xc)+E(xc)   XCENC  =       -12.72479284
  PAW double counting   =       112.86153859      -87.47911560
  entropy T*S    EENTRO =        -0.00000000
  eigenvalues    EBANDS =       -22.55699625
  atomic energy  EATOM  =       231.52902276
  ---------------------------------------------------
  free energy    TOTEN  =       -12.18206906 eV

  energy without entropy =      -12.18206906  energy(sigma->0) =      -12.18206906
  exchange ACFDT corr.  =        -0.00000000  see jH, gK, PRB 81, 115126


--------------------------------------------------------------------------------------------------------




--------------------------------------- Iteration      1(   3)  ---------------------------------------


    POTLOK:  cpu time    0.0910: real time    0.0912
    SETDIJ:  cpu time    0.2140: real time    0.2136
    TRIAL :  cpu time  292.6185: real time  292.6652
    CORREC:  cpu time  292.0386: real time  292.1046
    CHARGE:  cpu time    0.0870: real time    0.0868
    --------------------------------------------
      LOOP:  cpu time  585.0551: real time  585.1737

 eigenvalue-minimisations  :     0
 total energy-change (2. order) :-0.7694331E-02  (-0.1040734E-02)
 number of electron       8.0000000 magnetization 
 augmentation part       -0.9824375 magnetization 

 Free energy of the ion-electron system (eV)
  ---------------------------------------------------
  alpha Z        PSCENC =        15.71347255
  Ewald energy   TEWEN  =      -237.69805893
  -Hartree energ DENC   =       -23.80542892
  -exchange      EXHF   =        11.78706070
  -V(xc)+E(xc)   XCENC  =       -12.70016989
  PAW double counting   =       113.00197003      -87.62716056
  entropy T*S    EENTRO =        -0.00000000
  eigenvalues    EBANDS =       -22.39047113
  atomic energy  EATOM  =       231.52902276
  ---------------------------------------------------
  free energy    TOTEN  =       -12.18976339 eV

  energy without entropy =      -12.18976339  energy(sigma->0) =      -12.18976339
  exchange ACFDT corr.  =        -0.00000000  see jH, gK, PRB 81, 115126


--------------------------------------------------------------------------------------------------------




--------------------------------------- Iteration      1(   4)  ---------------------------------------


    POTLOK:  cpu time    0.0260: real time    0.0260
    SETDIJ:  cpu time    0.2140: real time    0.2135
    TRIAL :  cpu time  291.5967: real time  291.6415
    CORREC:  cpu time  291.6537: real time  291.7184
    CHARGE:  cpu time    0.0860: real time    0.0867
    --------------------------------------------
      LOOP:  cpu time  583.5873: real time  583.7036

 eigenvalue-minimisations  :     0
 total energy-change (2. order) :-0.1053239E-02  (-0.1664357E-03)
 number of electron       8.0000000 magnetization 
 augmentation part       -0.9822426 magnetization 

 Free energy of the ion-electron system (eV)
  ---------------------------------------------------
  alpha Z        PSCENC =        15.71347255
  Ewald energy   TEWEN  =      -237.69805893
  -Hartree energ DENC   =       -23.82106548
  -exchange      EXHF   =        11.79166612
  -V(xc)+E(xc)   XCENC  =       -12.70047196
  PAW double counting   =       112.75349526      -87.38020612
  entropy T*S    EENTRO =        -0.00000000
  eigenvalues    EBANDS =       -22.37867082
  atomic energy  EATOM  =       231.52902276
  ---------------------------------------------------
  free energy    TOTEN  =       -12.19081663 eV

  energy without entropy =      -12.19081663  energy(sigma->0) =      -12.19081663
  exchange ACFDT corr.  =        -0.00000000  see jH, gK, PRB 81, 115126


--------------------------------------------------------------------------------------------------------




--------------------------------------- Iteration      1(   5)  ---------------------------------------


    POTLOK:  cpu time    0.0420: real time    0.0426
    SETDIJ:  cpu time    0.2140: real time    0.2135
    TRIAL :  cpu time  291.3117: real time  291.3940
    CORREC:  cpu time  290.2339: real time  290.3123
    CHARGE:  cpu time    0.0870: real time    0.0863
    --------------------------------------------
[...]
      6       8.5445      0.00000
      7       8.5445      0.00000
      8      12.1684      0.00000
      9      14.6817      0.00000
     10      15.3108      0.00000
     11      15.3108      0.00000
     12      18.2999      0.00000
     13      18.2999      0.00000
     14      18.4910      0.00000
     15      23.5489      0.00000
     16      25.6596      0.00000

 k-point    64 :       0.5000    0.5000    0.5000
  band No.  band energies     occupation 
      1      -8.7761      2.00000
      2      -4.3212      2.00000
      3       1.6740      2.00000
      4       1.6740      2.00000
      5       5.4131      0.00000
      6       8.5225      0.00000
      7       8.5225      0.00000
      8      12.1750      0.00000
      9      15.0606      0.00000
     10      15.8799      0.00000
     11      15.8799      0.00000
     12      17.6243      0.00000
     13      17.6243      0.00000
     14      18.0628      0.00000
     15      24.5936      0.00000
     16      26.5922      0.00000

 k-point    65 :       0.5000    0.5000    0.5000
  band No.  band energies     occupation 
      1      -8.7761      2.00000
      2      -4.3212      2.00000
      3       1.6740      2.00000
      4       1.6740      2.00000
      5       5.4131      0.00000
      6       8.5225      0.00000
      7       8.5225      0.00000
      8      12.1750      0.00000
      9      15.0606      0.00000
     10      15.8799      0.00000
     11      15.8799      0.00000
     12      17.6243      0.00000
     13      17.6243      0.00000
     14      18.0628      0.00000
     15      24.5936      0.00000
     16      26.5922      0.00000

 k-point    66 :       0.5000    0.4722    0.5278
  band No.  band energies     occupation 
      1      -8.7530      2.00000
      2      -4.3038      2.00000
      3       1.4565      2.00000
      4       1.6291      2.00000
      5       5.6209      0.00000
      6       8.4417      0.00000
      7       8.6235      0.00000
      8      12.2844      0.00000
      9      14.7673      0.00000
     10      15.7231      0.00000
     11      16.0723      0.00000
     12      17.2711      0.00000
     13      17.8154      0.00000
     14      18.6682      0.00000
     15      24.5324      0.00000
     16      26.2338      0.00000

 k-point    67 :       0.5000    0.4444    0.5556
  band No.  band energies     occupation 
      1      -8.6845      2.00000
      2      -4.2545      2.00000
      3       0.9362      2.00000
      4       1.4950      2.00000
      5       6.0978      0.00000
      6       8.2603      0.00000
      7       8.9390      0.00000
      8      12.4455      0.00000
      9      14.3527      0.00000
     10      15.3326      0.00000
     11      16.2902      0.00000
     12      17.1048      0.00000
     13      18.3574      0.00000
     14      19.5326      0.00000
     15      24.3269      0.00000
     16      25.7609      0.00000

 k-point    68 :       0.5000    0.4167    0.5833
  band No.  band energies     occupation 
      1      -8.5739      2.00000
      2      -4.1813      2.00000
      3       0.3132      2.00000
      4       1.2743      2.00000
      5       6.6195      0.00000
      6       8.0894      0.00000
      7       9.4817      0.00000
      8      12.3221      0.00000
      9      13.9461      0.00000
     10      15.2279      0.00000
     11      16.4606      0.00000
     12      17.1348      0.00000
     13      19.1162      0.00000
     14      20.4013      0.00000
     15      23.9629      0.00000
     16      25.1946      0.00000

 k-point    69 :       0.5000    0.3889    0.6111
  band No.  band energies     occupation 
      1      -8.4274      2.00000
      2      -4.1004      2.00000
      3      -0.2862      2.00000
      4       0.9765      2.00000
      5       7.0718      0.00000
      6       8.0148      0.00000
      7      10.1776      0.00000
      8      11.9703      0.00000
      9      13.3256      0.00000
     10      15.7062      0.00000
     11      16.6434      0.00000
     12      17.2867      0.00000
     13      19.9658      0.00000
     14      21.1582      0.00000
     15      23.5007      0.00000
     16      24.5675      0.00000

 k-point    70 :       0.5000    0.3611    0.6389
  band No.  band energies     occupation 
      1      -8.2552      2.00000
      2      -4.0376      2.00000
      3      -0.7799      2.00000
      4       0.6191      2.00000
      5       7.4274      0.00000
      6       8.0941      0.00000
      7      10.6091      0.00000
      8      11.9029      0.00000
      9      12.6858      0.00000
     10      16.2876      0.00000
     11      16.8429      0.00000
     12      17.6800      0.00000
     13      20.8343      0.00000
     14      21.5526      0.00000
     15      23.0488      0.00000
     16      23.9871      0.00000

 k-point    71 :       0.5000    0.3333    0.6667
  band No.  band energies     occupation 
      1      -8.0735      2.00000
      2      -4.0231      2.00000
      3      -1.1034      2.00000
      4       0.2267      2.00000
      5       7.7021      0.00000
      6       8.3410      0.00000
      7      10.3518      0.00000
      8      11.7643      0.00000
      9      12.9330      0.00000
     10      16.6266      0.00000
     11      17.0193      0.00000
     12      18.4529      0.00000
     13      21.1798      0.00000
     14      21.6676      0.00000
     15      22.7570      0.00000
     16      23.6997      0.00000

 k-point    72 :       0.5000    0.3056    0.6944
  band No.  band energies     occupation 
      1      -7.9063      2.00000
      2      -4.0672      2.00000
      3      -1.2206      2.00000
      4      -0.1719      2.00000
      5       7.9605      0.00000
      6       8.6767      0.00000
      7       9.9374      0.00000
      8      11.1404      0.00000
      9      13.9812      0.00000
     10      16.7105      0.00000
     11      17.2265      0.00000
     12      19.2419      0.00000
     13      20.4342      0.00000
     14      22.2523      0.00000
     15      22.7668      0.00000
     16      23.6228      0.00000

 k-point    73 :       0.5000    0.2778    0.7222
  band No.  band energies     occupation 
      1      -7.7848      2.00000
      2      -4.1344      2.00000
      3      -1.1494      2.00000
      4      -0.5411      2.00000
      5       8.2334      0.00000
      6       8.9093      0.00000
      7       9.7239      0.00000
      8      10.5341      0.00000
      9      15.0718      0.00000
     10      16.5459      0.00000
     11      17.5329      0.00000
     12      18.8381      0.00000
     13      20.6636      0.00000
     14      22.4340      0.00000
     15      23.2275      0.00000
     16      23.6861      0.00000

 k-point    74 :       0.5000    0.2500    0.7500
  band No.  band energies     occupation 
      1      -7.7399      2.00000
      2      -4.1661      2.00000
      3      -1.0162      2.00000
      4      -0.7702      2.00000
      5       8.4061      0.00000
      6       8.8716      0.00000
      7       9.9587      0.00000
      8      10.0555      0.00000
      9      15.8404      0.00000
     10      16.1682      0.00000
     11      17.9592      0.00000
     12      18.1290      0.00000
     13      20.9506      0.00000
     14      22.6471      0.00000
     15      23.5603      0.00000
     16      23.9039      0.00000

 k-point    75 :       0.5000    0.2500    0.7500
  band No.  band energies     occupation 
      1      -7.7399      2.00000
      2      -4.1661      2.00000
      3      -1.0162      2.00000
      4      -0.7702      2.00000
      5       8.4061      0.00000
      6       8.8716      0.00000
      7       9.9587      0.00000
      8      10.0555      0.00000
      9      15.8404      0.00000
     10      16.1682      0.00000
     11      17.9592      0.00000
     12      18.1290      0.00000
     13      20.9506      0.00000
     14      22.6471      0.00000
     15      23.5603      0.00000
     16      23.9039      0.00000

 k-point    76 :       0.5000    0.2222    0.7222
  band No.  band energies     occupation 
      1      -7.7422      2.00000
      2      -4.1757      2.00000
      3      -0.9887      2.00000
      4      -0.7510      2.00000
      5       8.1633      0.00000
      6       8.5575      0.00000
      7      10.2954      0.00000
      8      10.3281      0.00000
      9      15.8347      0.00000
     10      16.1678      0.00000
     11      17.9537      0.00000
     12      18.1089      0.00000
     13      20.9957      0.00000
     14      22.6484      0.00000
     15      23.5280      0.00000
     16      23.8057      0.00000

 k-point    77 :       0.5000    0.1944    0.6944
  band No.  band energies     occupation 
      1      -7.7490      2.00000
      2      -4.2026      2.00000
      3      -0.9090      2.00000
      4      -0.6949      2.00000
      5       7.6695      0.00000
      6       8.0068      0.00000
      7      10.9114      0.00000
      8      10.9147      0.00000
      9      15.8183      0.00000
     10      16.1674      0.00000
     11      17.9349      0.00000
     12      18.0527      0.00000
     13      21.1264      0.00000
     14      22.6288      0.00000
     15      23.2179      0.00000
     16      23.7744      0.00000

 k-point    78 :       0.5000    0.1667    0.6667
  band No.  band energies     occupation 
      1      -7.7594      2.00000
      2      -4.2422      2.00000
      3      -0.7855      2.00000
      4      -0.6061      2.00000
      5       7.1316      0.00000
      6       7.4420      0.00000
      7      11.5943      0.00000
      8      11.5986      0.00000
      9      15.7931      0.00000
     10      16.1685      0.00000
     11      17.8956      0.00000
     12      17.9695      0.00000
     13      21.3271      0.00000
     14      22.4842      0.00000
     15      22.6512      0.00000
     16      23.6763      0.00000

 k-point    79 :       0.5000    0.1389    0.6389
  band No.  band energies     occupation 
      1      -7.7719      2.00000
      2      -4.2882      2.00000
      3      -0.6305      2.00000
      4      -0.4919      2.00000
      5       6.6155      0.00000
      6       6.9099      0.00000
      7      12.2889      0.00000
      8      12.3235      0.00000
      9      15.7614      0.00000
     10      16.1742      0.00000
     11      17.8247      0.00000
     12      17.8686      0.00000
     13      21.5531      0.00000
     14      22.0107      0.00000
     15      22.1381      0.00000
     16      23.6166      0.00000

 k-point    80 :       0.5000    0.1111    0.6111
  band No.  band energies     occupation 
      1      -7.7852      2.00000
      2      -4.3346      2.00000
      3      -0.4598      2.00000
      4      -0.3631      2.00000
      5       6.1499      0.00000
      6       6.4320      0.00000
      7      12.9776      0.00000
      8      13.0540      0.00000
      9      15.7249      0.00000
     10      16.1904      0.00000
     11      17.7093      0.00000
     12      17.7544      0.00000
     13      21.2073      0.00000
     14      21.7039      0.00000
     15      21.9476      0.00000
     16      23.7868      0.00000

 k-point    81 :       0.5000    0.0833    0.5833
  band No.  band energies     occupation 
      1      -7.7975      2.00000
      2      -4.3760      2.00000
      3      -0.2921      2.00000
      4      -0.2338      2.00000
      5       5.7558      0.00000
      6       6.0271      0.00000
      7      13.6404      0.00000
      8      13.7572      0.00000
      9      15.6828      0.00000
     10      16.2293      0.00000
     11      17.5401      0.00000
     12      17.6215      0.00000
     13      20.5308      0.00000
     14      21.3016      0.00000
     15      22.2529      0.00000
     16      24.0846      0.00000

 k-point    82 :       0.5000    0.0556    0.5556
  band No.  band energies     occupation 
      1      -7.8074      2.00000
      2      -4.4084      2.00000
      3      -0.1488      2.00000
      4      -0.1215      2.00000
      5       5.4532      0.00000
      6       5.7155      0.00000
      7      14.2480      0.00000
      8      14.3781      0.00000
      9      15.6285      0.00000
     10      16.3164      0.00000
     11      17.3254      0.00000
     12      17.4506      0.00000
     13      19.9257      0.00000
     14      20.9892      0.00000
     15      22.5583      0.00000
     16      24.4741      0.00000

 k-point    83 :       0.5000    0.0278    0.5278
  band No.  band energies     occupation 
      1      -7.8139      2.00000
      2      -4.4289      2.00000
      3      -0.0511      2.00000
      4      -0.0441      2.00000
      5       5.2614      0.00000
      6       5.5173      0.00000
      7      14.7450      0.00000
      8      14.8205      0.00000
      9      15.5474      0.00000
     10      16.4906      0.00000
     11      17.1174      0.00000
     12      17.2176      0.00000
     13      19.4964      0.00000
     14      20.7950      0.00000
     15      22.7977      0.00000
     16      24.9327      0.00000

 k-point    84 :       0.5000    0.0000    0.5000
  band No.  band energies     occupation 
      1      -7.8161      2.00000
      2      -4.4359      2.00000
      3      -0.0164      2.00000
      4      -0.0164      2.00000
      5       5.1956      0.00000
      6       5.4491      0.00000
      7      14.9800      0.00000
      8      14.9800      0.00000
      9      15.4754      0.00000
     10      16.6651      0.00000
     11      17.0241      0.00000
     12      17.0241      0.00000
     13      19.3399      0.00000
     14      20.7296      0.00000
     15      22.8923      0.00000
     16      25.2058      0.00000


--------------------------------------------------------------------------------------------------------


 soft charge-density along one line, spin component           1
         0         1         2         3         4         5         6         7         8         9
 total charge-density along one line
 
 pseudopotential strength for first ion, spin component:           1
 27.936   0.003  -0.000  -0.000  -0.000   0.000   0.000   0.000
  0.003   0.008   0.000   0.000   0.000  -0.000  -0.000  -0.000
 -0.000   0.000   6.219   0.000   0.000   0.004  -0.000  -0.000
 -0.000   0.000   0.000   6.219   0.000  -0.000   0.004  -0.000
 -0.000   0.000   0.000   0.000   6.219  -0.000  -0.000   0.004
  0.000  -0.000   0.004  -0.000  -0.000   0.015   0.000   0.000
  0.000  -0.000  -0.000   0.004  -0.000   0.000   0.015   0.000
  0.000  -0.000  -0.000  -0.000   0.004   0.000   0.000   0.015
 total augmentation occupancy for first ion, spin component:           1
  1.676  -1.056   0.000  -0.000  -0.000  -0.000   0.000   0.000
 -1.056   1.119   0.000  -0.000  -0.000  -0.000   0.000   0.000
  0.000   0.000   1.235  -0.000   0.000  -0.686  -0.000  -0.000
 -0.000  -0.000  -0.000   1.235   0.000  -0.000  -0.686   0.000
 -0.000  -0.000   0.000   0.000   1.235  -0.000   0.000  -0.686
 -0.000  -0.000  -0.686  -0.000  -0.000   0.439   0.000   0.000
  0.000   0.000  -0.000  -0.686   0.000   0.000   0.439  -0.000
  0.000   0.000  -0.000   0.000  -0.686   0.000  -0.000   0.439


------------------------ aborting loop because EDIFF is reached ----------------------------------------


 


 total charge     
 
# of ion       s       p       d       tot
------------------------------------------
    1        1.021   1.534   0.000   2.554
    2        1.083   1.322   0.175   2.579
--------------------------------------------------
tot          2.103   2.855   0.175   5.133
 
    FORLOC:  cpu time    0.0000: real time    0.0007
    FORHF :  cpu time  473.9060: real time  474.0117
    FORNL :  cpu time    0.1700: real time    0.1695
    FORCOR:  cpu time    0.2390: real time    0.2396
    OFIELD:  cpu time    0.0000: real time    0.0001

 VOLUME and BASIS-vectors are now :
 -----------------------------------------------------------------------------
  energy-cutoff  :      400.00
  volume of cell :       40.48
      direct lattice vectors                 reciprocal lattice vectors
     0.000000000  2.725250000  2.725250000    -0.183469406  0.183469406  0.183469406
     2.725250000  0.000000000  2.725250000     0.183469406 -0.183469406  0.183469406
     2.725250000  2.725250000  0.000000000     0.183469406  0.183469406 -0.183469406

  length of vectors
     3.854085511  3.854085511  3.854085511     0.317778334  0.317778334  0.317778334


 FORCES acting on ions:
    Electron-Ion                     Ewald-Force                    Non-Local-Force
 -----------------------------------------------------------------------------------------------
   -.378E-05 -.147E-05 -.630E-06   -.652E-14 -.840E-14 -.134E-13   0.555E-16 0.971E-16 0.160E-15
   -.528E-06 -.302E-06 -.356E-06   0.657E-14 0.824E-14 0.137E-13   0.000E+00 0.000E+00 0.000E+00
 -----------------------------------------------------------------------------------------------
   -.588E-05 -.319E-05 -.239E-05   0.518E-16 -.153E-15 0.372E-15   0.555E-16 0.971E-16 0.160E-15
 
 
 POSITION                                       TOTAL-FORCE (eV/Angst)
 -----------------------------------------------------------------------------------
      4.08788      4.08788      4.08788         0.000000      0.000000      0.000000
      0.00000      0.00000      0.00000        -0.000000     -0.000000     -0.000000
 -----------------------------------------------------------------------------------
    total drift:                               -0.000006     -0.000003     -0.000002


--------------------------------------------------------------------------------------------------------



  FREE ENERGIE OF THE ION-ELECTRON SYSTEM (eV)
  ---------------------------------------------------
  free  energy   TOTEN  =       -12.19100549 eV

  energy  without entropy=      -12.19100549  energy(sigma->0) =      -12.19100549
 


--------------------------------------------------------------------------------------------------------


    POTLOK:  cpu time    0.2400: real time    0.2396


--------------------------------------------------------------------------------------------------------


 stress matrix after NEB project (eV)
      0.00000      0.00000      0.00000
      0.00000      0.00000      0.00000
      0.00000      0.00000      0.00000
  FORCES: max atom, RMS     0.000000    0.000000
  FORCE total and by dimension    0.000000    0.000000
  Stress total and by dimension    0.000000    0.000000
 writing wavefunctions
     LOOP+:  cpu time 6583.2362: real time 6585.0286
    4ORBIT:  cpu time    0.0000: real time    0.0000
 


 total charge     
 
# of ion       s       p       d       tot
------------------------------------------
    1        1.021   1.534   0.000   2.554
    2        1.083   1.322   0.175   2.579
--------------------------------------------------
tot          2.103   2.855   0.175   5.133
 

 total amount of memory used by VASP MPI-rank0    35927. kBytes
=======================================================================

   base      :      30000. kBytes
   nonlr-proj:       1368. kBytes
   fftplans  :        647. kBytes
   grid      :        604. kBytes
   one-center:         16. kBytes
   HF        :         67. kBytes
   wavefun   :       3225. kBytes
 
  
  
 General timing and accounting informations for this job:
 ========================================================
  
                  Total CPU time used (sec):     6749.973
                            User time (sec):     6749.589
                          System time (sec):        0.384
                         Elapsed time (sec):     6752.156
  
                   Maximum memory used (kb):      211696.
                   Average memory used (kb):           0.
  
                          Minor page faults:        35610
                          Major page faults:            1
                 Voluntary context switches:         1595
