   2   2   0   0
  0.4074994E+03  0.1054760E-08  0.1054760E-08  0.8459000E-09  0.2000000E-16
  1.000000000000000E-004
  CAR 
 Pt(111)                                 
      1.88424050    -10.81375041  301    -10.16826920      1.00000000
    -10.814  0.0000E+00  0.0000E+00
    -10.771  0.0000E+00  0.0000E+00
    -10.729  0.0000E+00  0.0000E+00
    -10.687  0.0000E+00  0.0000E+00
    -10.644  0.0000E+00  0.0000E+00
    -10.602  0.0000E+00  0.0000E+00
    -10.560  0.0000E+00  0.0000E+00
    -10.517  0.0000E+00  0.0000E+00
    -10.475  0.0000E+00  0.0000E+00
    -10.433  0.0000E+00  0.0000E+00
    -10.390  0.0000E+00  0.0000E+00
    -10.348  0.0000E+00  0.0000E+00
    -10.306  0.0000E+00  0.0000E+00
    -10.264  0.5400E-04  0.2286E-05
    -10.221  0.7631E+00  0.3230E-01
    -10.179  0.1143E-01  0.3279E-01
    -10.137  0.0000E+00  0.3279E-01
    -10.094  0.0000E+00  0.3279E-01
    -10.052  0.0000E+00  0.3279E-01
    -10.010  0.0000E+00  0.3279E-01
     -9.967  0.0000E+00  0.3279E-01
     -9.925  0.0000E+00  0.3279E-01
     -9.883  0.0000E+00  0.3279E-01
     -9.840  0.0000E+00  0.3279E-01
     -9.798  0.0000E+00  0.3279E-01
     -9.756  0.0000E+00  0.3279E-01
     -9.713  0.0000E+00  0.3279E-01
     -9.671  0.0000E+00  0.3279E-01
     -9.629  0.0000E+00  0.3279E-01
     -9.586  0.0000E+00  0.3279E-01
     -9.544  0.0000E+00  0.3279E-01
     -9.502  0.0000E+00  0.3279E-01
     -9.459  0.0000E+00  0.3279E-01
     -9.417  0.0000E+00  0.3279E-01
     -9.375  0.0000E+00  0.3279E-01
     -9.332  0.0000E+00  0.3279E-01
     -9.290  0.0000E+00  0.3279E-01
     -9.248  0.0000E+00  0.3279E-01
     -9.205  0.0000E+00  0.3279E-01
     -9.163  0.0000E+00  0.3279E-01
     -9.121  0.0000E+00  0.3279E-01
     -9.078  0.0000E+00  0.3279E-01
     -9.036  0.0000E+00  0.3279E-01
     -8.994  0.0000E+00  0.3279E-01
     -8.951  0.0000E+00  0.3279E-01
     -8.909  0.0000E+00  0.3279E-01
     -8.867  0.0000E+00  0.3279E-01
     -8.824  0.0000E+00  0.3279E-01
     -8.782  0.0000E+00  0.3279E-01
     -8.740  0.0000E+00  0.3279E-01
     -8.697  0.0000E+00  0.3279E-01
     -8.655  0.0000E+00  0.3279E-01
     -8.613  0.0000E+00  0.3279E-01
     -8.570  0.0000E+00  0.3279E-01
     -8.528  0.0000E+00  0.3279E-01
     -8.486  0.0000E+00  0.3279E-01
     -8.443  0.0000E+00  0.3279E-01
     -8.401  0.0000E+00  0.3279E-01
     -8.359  0.0000E+00  0.3279E-01
     -8.316  0.0000E+00  0.3279E-01
     -8.274  0.0000E+00  0.3279E-01
     -8.232  0.0000E+00  0.3279E-01
     -8.189  0.0000E+00  0.3279E-01
     -8.147  0.0000E+00  0.3279E-01
     -8.105  0.0000E+00  0.3279E-01
     -8.063  0.0000E+00  0.3279E-01
     -8.020  0.0000E+00  0.3279E-01
     -7.978  0.0000E+00  0.3279E-01
     -7.936  0.0000E+00  0.3279E-01
     -7.893  0.0000E+00  0.3279E-01
     -7.851  0.0000E+00  0.3279E-01
     -7.809  0.0000E+00  0.3279E-01
     -7.766  0.0000E+00  0.3279E-01
     -7.724  0.0000E+00  0.3279E-01
     -7.682  0.0000E+00  0.3279E-01
     -7.639  0.0000E+00  0.3279E-01
     -7.597  0.0000E+00  0.3279E-01
     -7.555  0.0000E+00  0.3279E-01
     -7.512  0.0000E+00  0.3279E-01
     -7.470  0.0000E+00  0.3279E-01
     -7.428  0.0000E+00  0.3279E-01
     -7.385  0.0000E+00  0.3279E-01
     -7.343  0.0000E+00  0.3279E-01
     -7.301  0.0000E+00  0.3279E-01
     -7.258  0.0000E+00  0.3279E-01
     -7.216  0.0000E+00  0.3279E-01
     -7.174  0.0000E+00  0.3279E-01
     -7.131  0.0000E+00  0.3279E-01
     -7.089  0.0000E+00  0.3279E-01
     -7.047  0.0000E+00  0.3279E-01
     -7.004  0.0000E+00  0.3279E-01
     -6.962  0.0000E+00  0.3279E-01
     -6.920  0.0000E+00  0.3279E-01
     -6.877  0.0000E+00  0.3279E-01
     -6.835  0.0000E+00  0.3279E-01
     -6.793  0.0000E+00  0.3279E-01
     -6.750  0.0000E+00  0.3279E-01
     -6.708  0.0000E+00  0.3279E-01
     -6.666  0.0000E+00  0.3279E-01
     -6.623  0.0000E+00  0.3279E-01
     -6.581  0.0000E+00  0.3279E-01
     -6.539  0.0000E+00  0.3279E-01
     -6.496  0.0000E+00  0.3279E-01
     -6.454  0.0000E+00  0.3279E-01
     -6.412  0.0000E+00  0.3279E-01
     -6.369  0.0000E+00  0.3279E-01
     -6.327  0.0000E+00  0.3279E-01
     -6.285  0.0000E+00  0.3279E-01
     -6.242  0.0000E+00  0.3279E-01
     -6.200  0.0000E+00  0.3279E-01
     -6.158  0.0000E+00  0.3279E-01
     -6.115  0.0000E+00  0.3279E-01
     -6.073  0.0000E+00  0.3279E-01
     -6.031  0.0000E+00  0.3279E-01
     -5.989  0.0000E+00  0.3279E-01
     -5.946  0.0000E+00  0.3279E-01
     -5.904  0.0000E+00  0.3279E-01
     -5.862  0.0000E+00  0.3279E-01
     -5.819  0.0000E+00  0.3279E-01
     -5.777  0.0000E+00  0.3279E-01
     -5.735  0.0000E+00  0.3279E-01
     -5.692  0.0000E+00  0.3279E-01
     -5.650  0.0000E+00  0.3279E-01
     -5.608  0.0000E+00  0.3279E-01
     -5.565  0.0000E+00  0.3279E-01
     -5.523  0.0000E+00  0.3279E-01
     -5.481  0.0000E+00  0.3279E-01
     -5.438  0.0000E+00  0.3279E-01
     -5.396  0.0000E+00  0.3279E-01
     -5.354  0.0000E+00  0.3279E-01
     -5.311  0.0000E+00  0.3279E-01
     -5.269  0.0000E+00  0.3279E-01
     -5.227  0.0000E+00  0.3279E-01
     -5.184  0.0000E+00  0.3279E-01
     -5.142  0.0000E+00  0.3279E-01
     -5.100  0.0000E+00  0.3279E-01
     -5.057  0.0000E+00  0.3279E-01
     -5.015  0.0000E+00  0.3279E-01
     -4.973  0.0000E+00  0.3279E-01
     -4.930  0.0000E+00  0.3279E-01
     -4.888  0.0000E+00  0.3279E-01
     -4.846  0.0000E+00  0.3279E-01
     -4.803  0.0000E+00  0.3279E-01
     -4.761  0.0000E+00  0.3279E-01
     -4.719  0.0000E+00  0.3279E-01
     -4.676  0.0000E+00  0.3279E-01
     -4.634  0.0000E+00  0.3279E-01
     -4.592  0.0000E+00  0.3279E-01
     -4.549  0.0000E+00  0.3279E-01
     -4.507  0.0000E+00  0.3279E-01
     -4.465  0.0000E+00  0.3279E-01
     -4.422  0.0000E+00  0.3279E-01
     -4.380  0.0000E+00  0.3279E-01
     -4.338  0.0000E+00  0.3279E-01
     -4.295  0.0000E+00  0.3279E-01
     -4.253  0.0000E+00  0.3279E-01
     -4.211  0.0000E+00  0.3279E-01
     -4.168  0.0000E+00  0.3279E-01
     -4.126  0.0000E+00  0.3279E-01
     -4.084  0.0000E+00  0.3279E-01
     -4.041  0.0000E+00  0.3279E-01
     -3.999  0.0000E+00  0.3279E-01
     -3.957  0.0000E+00  0.3279E-01
     -3.915  0.0000E+00  0.3279E-01
     -3.872  0.0000E+00  0.3279E-01
     -3.830  0.0000E+00  0.3279E-01
     -3.788  0.0000E+00  0.3279E-01
     -3.745  0.0000E+00  0.3279E-01
     -3.703  0.0000E+00  0.3279E-01
     -3.661  0.0000E+00  0.3279E-01
     -3.618  0.0000E+00  0.3279E-01
     -3.576  0.0000E+00  0.3279E-01
     -3.534  0.0000E+00  0.3279E-01
     -3.491  0.0000E+00  0.3279E-01
     -3.449  0.0000E+00  0.3279E-01
     -3.407  0.0000E+00  0.3279E-01
     -3.364  0.0000E+00  0.3279E-01
     -3.322  0.0000E+00  0.3279E-01
     -3.280  0.0000E+00  0.3279E-01
     -3.237  0.0000E+00  0.3279E-01
     -3.195  0.0000E+00  0.3279E-01
     -3.153  0.0000E+00  0.3279E-01
     -3.110  0.0000E+00  0.3279E-01
     -3.068  0.0000E+00  0.3279E-01
     -3.026  0.0000E+00  0.3279E-01
     -2.983  0.0000E+00  0.3279E-01
     -2.941  0.0000E+00  0.3279E-01
     -2.899  0.0000E+00  0.3279E-01
     -2.856  0.0000E+00  0.3279E-01
     -2.814  0.0000E+00  0.3279E-01
     -2.772  0.0000E+00  0.3279E-01
     -2.729  0.0000E+00  0.3279E-01
     -2.687  0.0000E+00  0.3279E-01
     -2.645  0.0000E+00  0.3279E-01
     -2.602  0.0000E+00  0.3279E-01
     -2.560  0.0000E+00  0.3279E-01
     -2.518  0.0000E+00  0.3279E-01
     -2.475  0.0000E+00  0.3279E-01
     -2.433  0.0000E+00  0.3279E-01
     -2.391  0.0000E+00  0.3279E-01
     -2.348  0.0000E+00  0.3279E-01
     -2.306  0.0000E+00  0.3279E-01
     -2.264  0.0000E+00  0.3279E-01
     -2.221  0.0000E+00  0.3279E-01
     -2.179  0.0000E+00  0.3279E-01
     -2.137  0.0000E+00  0.3279E-01
     -2.094  0.0000E+00  0.3279E-01
     -2.052  0.0000E+00  0.3279E-01
     -2.010  0.0000E+00  0.3279E-01
     -1.967  0.0000E+00  0.3279E-01
     -1.925  0.0000E+00  0.3279E-01
     -1.883  0.0000E+00  0.3279E-01
     -1.841  0.0000E+00  0.3279E-01
     -1.798  0.0000E+00  0.3279E-01
     -1.756  0.0000E+00  0.3279E-01
     -1.714  0.0000E+00  0.3279E-01
     -1.671  0.0000E+00  0.3279E-01
     -1.629  0.0000E+00  0.3279E-01
     -1.587  0.0000E+00  0.3279E-01
     -1.544  0.0000E+00  0.3279E-01
     -1.502  0.0000E+00  0.3279E-01
     -1.460  0.0000E+00  0.3279E-01
     -1.417  0.0000E+00  0.3279E-01
     -1.375  0.0000E+00  0.3279E-01
     -1.333  0.0000E+00  0.3279E-01
     -1.290  0.0000E+00  0.3279E-01
     -1.248  0.0000E+00  0.3279E-01
     -1.206  0.0000E+00  0.3279E-01
     -1.163  0.0000E+00  0.3279E-01
     -1.121  0.0000E+00  0.3279E-01
     -1.079  0.0000E+00  0.3279E-01
     -1.036  0.0000E+00  0.3279E-01
     -0.994  0.0000E+00  0.3279E-01
     -0.952  0.0000E+00  0.3279E-01
     -0.909  0.0000E+00  0.3279E-01
     -0.867  0.0000E+00  0.3279E-01
     -0.825  0.0000E+00  0.3279E-01
     -0.782  0.0000E+00  0.3279E-01
     -0.740  0.0000E+00  0.3279E-01
     -0.698  0.0000E+00  0.3279E-01
     -0.655  0.0000E+00  0.3279E-01
     -0.613  0.0000E+00  0.3279E-01
     -0.571  0.0000E+00  0.3279E-01
     -0.528  0.0000E+00  0.3279E-01
     -0.486  0.0000E+00  0.3279E-01
     -0.444  0.0000E+00  0.3279E-01
     -0.401  0.0000E+00  0.3279E-01
     -0.359  0.0000E+00  0.3279E-01
     -0.317  0.0000E+00  0.3279E-01
     -0.274  0.0000E+00  0.3279E-01
     -0.232  0.1424E-03  0.3279E-01
     -0.190  0.7685E+00  0.6532E-01
     -0.147  0.5951E-02  0.6557E-01
     -0.105  0.0000E+00  0.6557E-01
     -0.063  0.0000E+00  0.6557E-01
     -0.020  0.0000E+00  0.6557E-01
      0.022  0.0000E+00  0.6557E-01
      0.064  0.0000E+00  0.6557E-01
      0.107  0.0000E+00  0.6557E-01
      0.149  0.0000E+00  0.6557E-01
      0.191  0.0000E+00  0.6557E-01
      0.234  0.0000E+00  0.6557E-01
      0.276  0.0000E+00  0.6557E-01
      0.318  0.4957E-04  0.6558E-01
      0.360  0.7625E+00  0.9785E-01
      0.403  0.1205E-01  0.9836E-01
      0.445  0.0000E+00  0.9836E-01
      0.487  0.0000E+00  0.9836E-01
      0.530  0.0000E+00  0.9836E-01
      0.572  0.0000E+00  0.9836E-01
      0.614  0.0000E+00  0.9836E-01
      0.657  0.0000E+00  0.9836E-01
      0.699  0.0000E+00  0.9836E-01
      0.741  0.0000E+00  0.9836E-01
      0.784  0.0000E+00  0.9836E-01
      0.826  0.0000E+00  0.9836E-01
      0.868  0.0000E+00  0.9836E-01
      0.911  0.0000E+00  0.9836E-01
      0.953  0.2752E-14  0.9836E-01
      0.995  0.2803E-01  0.9955E-01
      1.038  0.7466E+00  0.1311E+00
      1.080  0.1085E-04  0.1311E+00
      1.122  0.0000E+00  0.1311E+00
      1.165  0.0000E+00  0.1311E+00
      1.207  0.0000E+00  0.1311E+00
      1.249  0.1290E-15  0.1311E+00
      1.292  0.1143E-01  0.1316E+00
      1.334  0.7631E+00  0.1639E+00
      1.376  0.5400E-04  0.1639E+00
      1.419  0.0000E+00  0.1639E+00
      1.461  0.0000E+00  0.1639E+00
      1.503  0.0000E+00  0.1639E+00
      1.546  0.0000E+00  0.1639E+00
      1.588  0.0000E+00  0.1639E+00
      1.630  0.0000E+00  0.1639E+00
      1.673  0.0000E+00  0.1639E+00
      1.715  0.0000E+00  0.1639E+00
      1.757  0.0000E+00  0.1639E+00
      1.800  0.0000E+00  0.1639E+00
      1.842  0.0000E+00  0.1639E+00
      1.884  0.0000E+00  0.1639E+00
