    2    2   61    1
  0.4074994E+03  0.1054760E-08  0.1054760E-08  0.8459000E-09  0.2000000E-16
  1.000000000000000E-004
  CAR 
 Pt(111)                                 
      2      1      5
 
  0.0000000E+00  0.0000000E+00  0.0000000E+00  0.1000000E+01
    1      -10.236569   1.000000
    2       -0.206902   0.000000
    3        0.345239   0.000000
    4        1.008086   0.000000
    5        1.307059   0.000000
