       N       E                     dE             d eps       ncg     rms          rms(c)
DAV:   1     0.321329730242E+01    0.32133E+01   -0.16151E+02    10   0.372E+01
DAV:   2    -0.706395315793E+01   -0.10277E+02   -0.10277E+02    15   0.452E+01
DAV:   3    -0.740225659684E+01   -0.33830E+00   -0.33830E+00    15   0.157E+01
DAV:   4    -0.740275565845E+01   -0.49906E-03   -0.49906E-03    10   0.634E-01
DAV:   5    -0.740275786583E+01   -0.22074E-05   -0.22074E-05    15   0.417E-02    0.426E+00
RMM:   6    -0.698384942735E+01    0.41891E+00   -0.17697E-01    10   0.201E+00    0.233E+00
RMM:   7    -0.675185664454E+01    0.23199E+00   -0.48647E-01    10   0.331E+00    0.278E-01
RMM:   8    -0.675543734886E+01   -0.35807E-02   -0.59380E-03    10   0.386E-01    0.226E-01
RMM:   9    -0.675119731946E+01    0.42400E-02   -0.58898E-03    10   0.362E-01    0.353E-02
RMM:  10    -0.675414504308E+01   -0.29477E-02   -0.98143E-04    10   0.135E-01    0.407E-02
RMM:  11    -0.675494779635E+01   -0.80275E-03   -0.13604E-04    10   0.596E-02    0.102E-02
RMM:  12    -0.675654817017E+01   -0.16004E-02   -0.32731E-04    10   0.782E-02    0.728E-03
RMM:  13    -0.675666475636E+01   -0.11659E-03   -0.12835E-05    10   0.157E-02    0.466E-03
RMM:  14    -0.675673269201E+01   -0.67936E-04   -0.58458E-06    10   0.112E-02    0.787E-04
RMM:  15    -0.675674117053E+01   -0.84785E-05   -0.41459E-07     9   0.293E-03    0.429E-04
RMM:  16    -0.675674355520E+01   -0.23847E-05   -0.36846E-07     9   0.247E-03    0.106E-04
RMM:  17    -0.675674407263E+01   -0.51744E-06   -0.64364E-08     9   0.105E-03
   1 F= -.67567953E+01 E0= -.67567953E+01  d E =-.338909E-22
       N       E                     dE             d eps       ncg     rms          rms(c)
DAV:   1    -0.675473920264E+01    0.20044E-02   -0.14039E-01    10   0.291E+00    0.923E-02
RMM:   2    -0.675470597344E+01    0.33229E-04   -0.44765E-04    10   0.196E-01    0.562E-02
RMM:   3    -0.675469094072E+01    0.15033E-04   -0.10135E-04    10   0.573E-02    0.447E-03
RMM:   4    -0.675469455359E+01   -0.36129E-05   -0.12195E-06    10   0.711E-03    0.182E-03
RMM:   5    -0.675469768438E+01   -0.31308E-05   -0.52066E-07     9   0.411E-03    0.561E-04
RMM:   6    -0.675470113392E+01   -0.34495E-05   -0.38246E-07     9   0.254E-03    0.596E-04
RMM:   7    -0.675470141621E+01   -0.28229E-06    0.00000E+00     8   0.891E-04
   2 F= -.67547528E+01 E0= -.67547528E+01  d E =-.403873E-22
       N       E                     dE             d eps       ncg     rms          rms(c)
DAV:   1    -0.675822660250E+01   -0.35255E-02   -0.56211E-01    10   0.582E+00    0.181E-01
RMM:   2    -0.675816192840E+01    0.64674E-04   -0.17763E-03    10   0.395E-01    0.113E-01
RMM:   3    -0.675808585636E+01    0.76072E-04   -0.44272E-04    10   0.118E-01    0.960E-03
RMM:   4    -0.675809561681E+01   -0.97605E-05   -0.15635E-06    10   0.966E-03    0.634E-03
RMM:   5    -0.675811010854E+01   -0.14492E-04   -0.58910E-06    10   0.130E-02    0.230E-03
RMM:   6    -0.675811249932E+01   -0.23908E-05   -0.76973E-08     9   0.150E-03    0.148E-03
RMM:   7    -0.675812377745E+01   -0.11278E-04   -0.16681E-06    10   0.504E-03    0.133E-03
RMM:   8    -0.675812501744E+01   -0.12400E-05   -0.40995E-08     9   0.937E-04    0.550E-04
RMM:   9    -0.675812884786E+01   -0.38304E-05   -0.23264E-07     9   0.209E-03    0.518E-04
RMM:  10    -0.675812966453E+01   -0.81667E-06    0.00000E+00     8   0.709E-04
   3 F= -.67581807E+01 E0= -.67581807E+01  d E =-.293859E-22
       N       E                     dE             d eps       ncg     rms          rms(c)
DAV:   1    -0.676006517438E+01   -0.19363E-02   -0.30028E-01    10   0.420E+00    0.176E-01
RMM:   2    -0.675977046023E+01    0.29471E-03   -0.13093E-03    10   0.302E-01    0.107E-01
RMM:   3    -0.675961199604E+01    0.15846E-03   -0.60360E-04    10   0.114E-01    0.138E-02
RMM:   4    -0.675961487845E+01   -0.28824E-05   -0.40364E-06    10   0.119E-02    0.838E-03
RMM:   5    -0.675962293565E+01   -0.80572E-05   -0.92233E-06    10   0.158E-02    0.347E-03
RMM:   6    -0.675962398969E+01   -0.10540E-05   -0.22199E-07     9   0.246E-03    0.193E-03
RMM:   7    -0.675963338940E+01   -0.93997E-05   -0.18902E-06    10   0.564E-03    0.148E-03
RMM:   8    -0.675963495203E+01   -0.15626E-05   -0.12355E-07     9   0.166E-03    0.148E-04
RMM:   9    -0.675963822966E+01   -0.32776E-05   -0.11013E-07     9   0.141E-03    0.249E-04
RMM:  10    -0.675963913817E+01   -0.90851E-06    0.00000E+00     8   0.577E-04
   4 F= -.67596894E+01 E0= -.67596894E+01  d E =-.148012E-22
       N       E                     dE             d eps       ncg     rms          rms(c)
DAV:   1    -0.674477362926E+01    0.14865E-01   -0.65648E-01    10   0.605E+00    0.354E-01
RMM:   2    -0.674294999543E+01    0.18236E-02   -0.42097E-03    10   0.465E-01    0.195E-01
RMM:   3    -0.674210762852E+01    0.84237E-03   -0.21134E-03    10   0.205E-01    0.205E-02
RMM:   4    -0.674212998243E+01   -0.22354E-04   -0.79211E-05    10   0.468E-02    0.575E-03
RMM:   5    -0.674214048051E+01   -0.10498E-04   -0.11689E-05    10   0.204E-02    0.144E-03
RMM:   6    -0.674215161325E+01   -0.11133E-04   -0.35593E-06    10   0.859E-03    0.139E-03
RMM:   7    -0.674215365138E+01   -0.20381E-05   -0.24416E-07     9   0.253E-03    0.430E-04
RMM:   8    -0.674215636093E+01   -0.27095E-05   -0.35240E-07     9   0.234E-03    0.263E-04
RMM:   9    -0.674215689722E+01   -0.53630E-06   -0.65476E-08     9   0.112E-03
   5 F= -.67422091E+01 E0= -.67422091E+01  d E =-.771101E-22
       N       E                     dE             d eps       ncg     rms          rms(c)
DAV:   1    -0.675869473454E+01   -0.16538E-01   -0.31115E-01    10   0.422E+00    0.206E-01
RMM:   2    -0.675818601091E+01    0.50872E-03   -0.17763E-03    10   0.335E-01    0.122E-01
RMM:   3    -0.675792041456E+01    0.26560E-03   -0.85196E-04    10   0.131E-01    0.145E-02
RMM:   4    -0.675792597909E+01   -0.55645E-05   -0.79053E-06    10   0.157E-02    0.751E-03
RMM:   5    -0.675793474647E+01   -0.87674E-05   -0.90271E-06    10   0.164E-02    0.273E-03
RMM:   6    -0.675793744221E+01   -0.26957E-05   -0.52476E-07     9   0.356E-03    0.708E-04
RMM:   7    -0.675794667017E+01   -0.92280E-05   -0.11768E-06    10   0.444E-03    0.978E-04
RMM:   8    -0.675794935574E+01   -0.26856E-05   -0.15611E-07     9   0.185E-03    0.660E-04
RMM:   9    -0.675795177182E+01   -0.24161E-05   -0.93498E-08     9   0.117E-03    0.110E-04
RMM:  10    -0.675795277767E+01   -0.10058E-05    0.00000E+00     8   0.626E-04    0.933E-05
RMM:  11    -0.675795304447E+01   -0.26680E-06    0.00000E+00     8   0.761E-04
   6 F= -.67580041E+01 E0= -.67580041E+01  d E =-.295678E-22
       N       E                     dE             d eps       ncg     rms          rms(c)
DAV:   1    -0.675508722782E+01    0.28655E-02   -0.55971E-01    10   0.581E+00    0.182E-01
RMM:   2    -0.675500327797E+01    0.83950E-04   -0.17607E-03    10   0.393E-01    0.111E-01
RMM:   3    -0.675495364924E+01    0.49629E-04   -0.34993E-04    10   0.110E-01    0.829E-03
RMM:   4    -0.675496506391E+01   -0.11415E-04   -0.45100E-06    10   0.139E-02    0.385E-03
RMM:   5    -0.675497858390E+01   -0.13520E-04   -0.28627E-06    10   0.912E-03    0.133E-03
RMM:   6    -0.675498619236E+01   -0.76085E-05   -0.93673E-07     9   0.400E-03    0.810E-04
RMM:   7    -0.675498744322E+01   -0.12509E-05   -0.12328E-07     9   0.156E-03    0.452E-04
RMM:   8    -0.675498940186E+01   -0.19586E-05   -0.18854E-07     9   0.172E-03    0.256E-04
RMM:   9    -0.675498949242E+01   -0.90566E-07    0.00000E+00     8   0.443E-04
   7 F= -.67550409E+01 E0= -.67550409E+01  d E =-.395042E-22
       N       E                     dE             d eps       ncg     rms          rms(c)
DAV:   1    -0.675820885841E+01   -0.32195E-02   -0.28789E-01    10   0.415E+00    0.134E-01
RMM:   2    -0.675813862095E+01    0.70237E-04   -0.90548E-04    10   0.279E-01    0.828E-02
RMM:   3    -0.675811335073E+01    0.25270E-04   -0.24442E-04    10   0.864E-02    0.754E-03
RMM:   4    -0.675811755535E+01   -0.42046E-05   -0.79247E-07     9   0.674E-03    0.486E-03
RMM:   5    -0.675812438025E+01   -0.68249E-05   -0.33982E-06    10   0.100E-02    0.176E-03
RMM:   6    -0.675812498485E+01   -0.60459E-06   -0.28886E-08     9   0.959E-04
   8 F= -.67581760E+01 E0= -.67581760E+01  d E =-.318955E-22
       N       E                     dE             d eps       ncg     rms          rms(c)
DAV:   1    -0.675481427569E+01    0.33101E-02   -0.56082E-01    10   0.581E+00    0.185E-01
RMM:   2    -0.675472288178E+01    0.91394E-04   -0.18909E-03    10   0.395E-01    0.112E-01
RMM:   3    -0.675465905460E+01    0.63827E-04   -0.37677E-04    10   0.112E-01    0.101E-02
RMM:   4    -0.675466743105E+01   -0.83765E-05   -0.67693E-06    10   0.161E-02    0.435E-03
RMM:   5    -0.675468038272E+01   -0.12952E-04   -0.32854E-06    10   0.981E-03    0.157E-03
RMM:   6    -0.675468878149E+01   -0.83988E-05   -0.12035E-06    10   0.447E-03    0.107E-03
RMM:   7    -0.675469017134E+01   -0.13899E-05   -0.60366E-08     9   0.110E-03    0.563E-04
RMM:   8    -0.675469442050E+01   -0.42492E-05   -0.32036E-07     9   0.230E-03    0.341E-04
RMM:   9    -0.675469472994E+01   -0.30945E-06    0.00000E+00     8   0.702E-04
   9 F= -.67547461E+01 E0= -.67547461E+01  d E =-.406074E-22
       N       E                     dE             d eps       ncg     rms          rms(c)
DAV:   1    -0.674254081972E+01    0.12154E-01   -0.29141E-01    10   0.414E+00    0.169E-01
RMM:   2    -0.674226419919E+01    0.27662E-03   -0.13597E-03    10   0.298E-01    0.977E-02
RMM:   3    -0.674212522373E+01    0.13898E-03   -0.42688E-04    10   0.985E-02    0.114E-02
RMM:   4    -0.674213328324E+01   -0.80595E-05   -0.11094E-05    10   0.184E-02    0.341E-03
RMM:   5    -0.674213925593E+01   -0.59727E-05   -0.23915E-06    10   0.893E-03    0.894E-04
RMM:   6    -0.674214585115E+01   -0.65952E-05   -0.13110E-06    10   0.475E-03    0.122E-03
RMM:   7    -0.674214672110E+01   -0.86995E-06   -0.78337E-08     9   0.137E-03
  10 F= -.67421990E+01 E0= -.67421990E+01  d E =-.752521E-22
       N       E                     dE             d eps       ncg     rms          rms(c)
DAV:   1    -0.676201550630E+01   -0.19870E-01   -0.66339E-01    10   0.608E+00    0.345E-01
RMM:   2    -0.676043355533E+01    0.15820E-02   -0.43105E-03    10   0.514E-01    0.201E-01
RMM:   3    -0.675957233251E+01    0.86122E-03   -0.25087E-03    10   0.221E-01    0.231E-02
RMM:   4    -0.675958504481E+01   -0.12712E-04   -0.24380E-05    10   0.276E-02    0.117E-02
RMM:   5    -0.675960400014E+01   -0.18955E-04   -0.27503E-05    10   0.287E-02    0.481E-03
RMM:   6    -0.675960903387E+01   -0.50337E-05   -0.18895E-06    10   0.636E-03    0.116E-03
RMM:   7    -0.675962782311E+01   -0.18789E-04   -0.25210E-06    10   0.636E-03    0.130E-03
RMM:   8    -0.675963367178E+01   -0.58487E-05   -0.20319E-07     9   0.211E-03    0.515E-04
RMM:   9    -0.675963916828E+01   -0.54965E-05   -0.22196E-07     9   0.184E-03    0.119E-04
RMM:  10    -0.675964135091E+01   -0.21826E-05   -0.58487E-08     9   0.103E-03    0.236E-04
RMM:  11    -0.675964182049E+01   -0.46958E-06    0.00000E+00     8   0.495E-04
  11 F= -.67596921E+01 E0= -.67596921E+01  d E =-.146937E-22
       N       E                     dE             d eps       ncg     rms          rms(c)
DAV:   1    -0.675592084975E+01    0.37205E-02   -0.31601E-01    10   0.425E+00    0.222E-01
RMM:   2    -0.675525139448E+01    0.66946E-03   -0.17942E-03    10   0.318E-01    0.126E-01
RMM:   3    -0.675495885766E+01    0.29254E-03   -0.83467E-04    10   0.131E-01    0.136E-02
RMM:   4    -0.675497116590E+01   -0.12308E-04   -0.21703E-05    10   0.252E-02    0.353E-03
RMM:   5    -0.675497708207E+01   -0.59162E-05   -0.44915E-06    10   0.125E-02    0.976E-04
RMM:   6    -0.675498464961E+01   -0.75675E-05   -0.18391E-06    10   0.584E-03    0.150E-03
RMM:   7    -0.675498538604E+01   -0.73643E-06   -0.12418E-07     9   0.177E-03
  12 F= -.67550368E+01 E0= -.67550368E+01  d E =-.380742E-22
       N       E                     dE             d eps       ncg     rms          rms(c)
DAV:   1    -0.675801506438E+01   -0.30304E-02   -0.56095E-01    10   0.581E+00    0.179E-01
RMM:   2    -0.675794746904E+01    0.67595E-04   -0.17877E-03    10   0.396E-01    0.112E-01
RMM:   3    -0.675790386253E+01    0.43607E-04   -0.40247E-04    10   0.117E-01    0.852E-03
RMM:   4    -0.675791322460E+01   -0.93621E-05   -0.14325E-06    10   0.967E-03    0.566E-03
RMM:   5    -0.675792913165E+01   -0.15907E-04   -0.51263E-06    10   0.123E-02    0.195E-03
RMM:   6    -0.675793128390E+01   -0.21523E-05   -0.59840E-08     9   0.135E-03    0.128E-03
RMM:   7    -0.675794069675E+01   -0.94128E-05   -0.13466E-06    10   0.444E-03    0.958E-04
RMM:   8    -0.675794123540E+01   -0.53865E-06    0.00000E+00     8   0.596E-04
  13 F= -.67579923E+01 E0= -.67579923E+01  d E =-.310588E-22
