 vasp.5.4.4.18Apr17-6-g9f103f2a35 (build Apr 07 2018 02:38:49) complex          
  
 executed on             LinuxIFC date 2018.11.26  21:31:37
 running on    1 total cores
 distrk:  each k-point on    1 cores,    1 groups
 distr:  one band on NCORES_PER_BAND=   1 cores,    1 groups


--------------------------------------------------------------------------------------------------------


 INCAR:
 POTCAR:   PAW_PBE H 15Jun2001                    
 POTCAR:   PAW_PBE H 15Jun2001                    
  local pseudopotential read in
  atomic valenz-charges read in
  non local Contribution for L=           0  read in
    real space projection operators read in
  non local Contribution for L=           0  read in
    real space projection operators read in
  non local Contribution for L=           1  read in
    real space projection operators read in
    PAW grid and wavefunctions read in
 
   number of l-projection  operators is LMAX  =           3
   number of lm-projection operators is LMMAX =           5
 

 ----------------------------------------------------------------------------- 
|                                                                             |
|  ADVICE TO THIS USER RUNNING 'VASP/VAMP'   (HEAR YOUR MASTER'S VOICE ...):  |
|                                                                             |
|      You have a (more or less) 'small supercell' and for smaller cells      |
|      it is recommended  to use the reciprocal-space projection scheme!      |
|      The real space optimization is not  efficient for small cells and it   |
|      is also less accurate ...                                              |
|      Therefore set LREAL=.FALSE. in the  INCAR file                         |
|                                                                             |
 ----------------------------------------------------------------------------- 

 Optimization of the real space projectors (new method)

 maximal supplied QI-value         = 34.20
 optimisation between [QCUT,QGAM] = [  9.92, 20.18] = [ 27.55,114.04] Ry 
 Optimized for a Real-space Cutoff    1.26 Angstroem

   l    n(q)    QCUT    max X(q) W(low)/X(q) W(high)/X(q)  e(spline) 
   0      8     9.919     4.436    0.80E-04    0.66E-04    0.52E-07
   0      8     9.919    16.131    0.48E-03    0.23E-03    0.28E-06
   1      7     9.919     4.654    0.17E-03    0.75E-03    0.30E-06
 PAW_PBE H 15Jun2001                    :
 energy of atom  1       EATOM=  -12.4884
 kinetic energy error for atom=    0.0098 (will be added to EATOM!!)
 
 
 POSCAR:  CONTCAR2                               
  positions in cartesian coordinates
  No initial velocities read in
 exchange correlation table for  LEXCH =        8
   RHO(1)=    0.500       N(1)  =     2000
   RHO(2)=  100.500       N(2)  =     4000

 VTST: version 3.1, (03/28/14)

 CHAIN: initializing optimizer
 
 OPT: Using VASP Dynamics algorithm
 CHAIN: Read ICHAIN            0
 
 POSCAR:  CONTCAR2                               
  positions in cartesian coordinates
  No initial velocities read in
 


--------------------------------------------------------------------------------------------------------


 ion  position               nearest neighbor table
   1  0.379  0.745  0.925-   2 0.77
   2  0.406  0.826  0.940-   1 0.77
 
  LATTYP: Found a hexagonal cell.
 ALAT       =    10.5475997925
 C/A-ratio  =     0.8019833706
  
  Lattice vectors:
  
 A1 = (  10.5475997925,   0.0000000000,   0.0000000000)
 A2 = (  -5.2737998962,   9.1344893692,   0.0000000000)
 A3 = (   0.0000000000,   0.0000000000,   8.4589996338)


Analysis of symmetry for initial positions (statically):
=====================================================================
 Subroutine PRICEL returns:
 Original cell was already a primitive cell.
 

 Routine SETGRP: Setting up the symmetry group for a 
 hexagonal supercell.


 Subroutine GETGRP returns: Found  2 space group operations
 (whereof  1 operations were pure point group operations)
 out of a pool of 24 trial point group operations.


The static configuration has the point symmetry C_1 .
 The point group associated with its full space group is S_2 .


Analysis of symmetry for dynamics (positions and initial velocities):
=====================================================================
 Subroutine PRICEL returns:
 Original cell was already a primitive cell.
 

 Routine SETGRP: Setting up the symmetry group for a 
 hexagonal supercell.


 Subroutine GETGRP returns: Found  2 space group operations
 (whereof  1 operations were pure point group operations)
 out of a pool of 24 trial point group operations.


The dynamic configuration has the point symmetry C_1 .
 The point group associated with its full space group is S_2 .


Analysis of constrained symmetry for selective dynamics:
=====================================================================
 Subroutine PRICEL returns:
 Original cell was already a primitive cell.
 

 Routine SETGRP: Setting up the symmetry group for a 
 hexagonal supercell.


 Subroutine GETGRP returns: Found  2 space group operations
 (whereof  1 operations were pure point group operations)
 out of a pool of 24 trial point group operations.


The constrained configuration has the point symmetry C_1 .
 The point group associated with its full space group is S_2 .


 Subroutine INISYM returns: Found  2 space group operations
 (whereof  1 operations are pure point group operations),
 and found     1 'primitive' translations

 
 
 KPOINTS: K-POINTS                                

Automatic generation of k-mesh.
Space group operators:
 irot       det(A)        alpha          n_x          n_y          n_z        tau_x        tau_y        tau_z
    1     1.000000     0.000000     1.000000     0.000000     0.000000     0.000000     0.000000     0.000000
    2    -1.000000     0.000000     1.000000     0.000000     0.000000     0.785310     0.570388     0.865093
 
 Subroutine IBZKPT returns following result:
 ===========================================
 
 Found      1 irreducible k-points:
 
 Following reciprocal coordinates:
            Coordinates               Weight
  0.000000  0.000000  0.000000      1.000000
 
 Following cartesian coordinates:
            Coordinates               Weight
  0.000000  0.000000  0.000000      1.000000
 
 
 Subroutine IBZKPT_HF returns following result:
 ==============================================
 
 Found      1 k-points in 1st BZ
 the following      1 k-points will be used (e.g. in the exchange kernel)
 Following reciprocal coordinates:   # in IRBZ
  0.000000  0.000000  0.000000    1.00000000   1 t-inv F


--------------------------------------------------------------------------------------------------------




 Dimension of arrays:
   k-points           NKPTS =      1   k-points in BZ     NKDIM =      1   number of bands    NBANDS=      5
   number of dos      NEDOS =    301   number of ions     NIONS =      2
   non local maximal  LDIM  =      3   non local SUM 2l+1 LMDIM =      5
   total plane-waves  NPLWV = 122472
   max r-space proj   IRMAX =   1319   max aug-charges    IRDMAX=    930
   dimension x,y,z NGX =    54 NGY =   54 NGZ =   42
   dimension x,y,z NGXF=   108 NGYF=  108 NGZF=   84
   support grid    NGXF=   108 NGYF=  108 NGZF=   84
   ions per type =               2
   NGX,Y,Z   is equivalent  to a cutoff of   8.51,  8.51,  8.25 a.u.
   NGXF,Y,Z  is equivalent  to a cutoff of  17.02, 17.02, 16.51 a.u.

 SYSTEM =  Pt(111)                                 
 POSCAR =   CONTCAR2                               

 Startparameter for this run:
   NWRITE =      0    write-flag & timer
   PREC   = n         normal or accurate (medium, high low for compatibility)
   ISTART =      0    job   : 0-new  1-cont  2-samecut
   ICHARG =      2    charge: 1-file 2-atom 10-const
   ISPIN  =      1    spin polarized calculation?
   LNONCOLLINEAR =      F non collinear calculations
   LSORBIT =      F    spin-orbit coupling
   INIWAV =      1    electr: 0-lowe 1-rand  2-diag
   LASPH  =      F    aspherical Exc in radial PAW
   METAGGA=      F    non-selfconsistent MetaGGA calc.

 Electronic Relaxation 1
   ENCUT  =  400.0 eV  29.40 Ry    5.42 a.u.  17.20 17.20 13.79*2*pi/ulx,y,z
   ENINI  =  400.0     initial cutoff
   ENAUG  =  400.0 eV  augmentation charge cutoff
   NELM   =    100;   NELMIN=  2; NELMDL=  0     # of ELM steps 
   EDIFF  = 0.1E-05   stopping-criterion for ELM
   LREAL  =      T    real-space projection
   NLSPLINE    = F    spline interpolate recip. space projectors
   LCOMPAT=      F    compatible to vasp.4.4
   GGA_COMPAT  = T    GGA compatible to vasp.4.4-vasp.4.6
   LMAXPAW     = -100 max onsite density
   LMAXMIX     =    2 max onsite mixed and CHGCAR
   VOSKOWN=      0    Vosko Wilk Nusair interpolation
   ROPT   =   -0.00050
 Ionic relaxation
   EDIFFG = 0.1E-04   stopping-criterion for IOM
   NSW    =     61    number of steps for IOM
   NBLOCK =      1;   KBLOCK =     61    inner block; outer block 
   IBRION =      5    ionic relax: 0-MD 1-quasi-New 2-CG
   NFREE  =      2    steps in history (QN), initial steepest desc. (CG)
   ISIF   =      2    stress and relaxation
   IWAVPR =     11    prediction:  0-non 1-charg 2-wave 3-comb
   ISYM   =      2    0-nonsym 1-usesym 2-fastsym
   LCORR  =      T    Harris-Foulkes like correction to forces

   POTIM  = 0.0200    time-step for ionic-motion
   TEIN   =    0.0    initial temperature
   TEBEG  =    0.0;   TEEND  =   0.0 temperature during run
   SMASS  =  -3.00    Nose mass-parameter (am)
   estimated Nose-frequenzy (Omega)   =  0.10E-29 period in steps =****** mass=  -0.254E-26a.u.
   SCALEE = 1.0000    scale energy and forces
   NPACO  =    256;   APACO  = 16.0  distance and # of slots for P.C.
   PSTRESS=    0.0 pullay stress

  Mass of Ions in am
   POMASS =   1.00
  Ionic Valenz
   ZVAL   =   1.00
  Atomic Wigner-Seitz radii
   RWIGS  =  -1.00
  virtual crystal weights 
   VCA    =   1.00
   NELECT =       2.0000    total number of electrons
   NUPDOWN=      -1.0000    fix difference up-down

 DOS related values:
   EMIN   =  10.00;   EMAX   =-10.00  energy-range for DOS
   EFERMI =   0.00
   ISMEAR =     0;   SIGMA  =   0.01  broadening in eV -4-tet -1-fermi 0-gaus

 Electronic relaxation 2 (details)
   IALGO  =     68    algorithm
   LDIAG  =      T    sub-space diagonalisation (order eigenvalues)
   LSUBROT=      F    optimize rotation matrix (better conditioning)
   TURBO    =      0    0=normal 1=particle mesh
   IRESTART =      0    0=no restart 2=restart with 2 vectors
   NREBOOT  =      0    no. of reboots
   NMIN     =      0    reboot dimension
   EREF     =   0.00    reference energy to select bands
   IMIX   =      4    mixing-type and parameters
     AMIX     =   0.40;   BMIX     =  1.00
     AMIX_MAG =   1.60;   BMIX_MAG =  1.00
     AMIN     =   0.10
     WC   =   100.;   INIMIX=   1;  MIXPRE=   1;  MAXMIX= -45

 Intra band minimization:
   WEIMIN = 0.0010     energy-eigenvalue tresh-hold
   EBREAK =  0.50E-07  absolut break condition
   DEPER  =   0.30     relativ break condition  

   TIME   =   0.40     timestep for ELM

  volume/ion in A,a.u.               =     407.50      2749.94
  Fermi-wavevector in a.u.,A,eV,Ry     =   0.220817  0.417284  0.663422  0.048760
  Thomas-Fermi vector in A             =   1.002006
 
 Write flags
   LWAVE        =      F    write WAVECAR
   LDOWNSAMPLE  =      F    k-point downsampling of WAVECAR
   LCHARG       =      F    write CHGCAR
   LVTOT        =      F    write LOCPOT, total local potential
   LVHAR        =      F    write LOCPOT, Hartree potential only
   LELF         =      F    write electronic localiz. function (ELF)
   LORBIT       =      0    0 simple, 1 ext, 2 COOP (PROOUT), +10 PAW based schemes


 Dipole corrections
   LMONO  =      F    monopole corrections only (constant potential shift)
   LDIPOL =      F    correct potential (dipole corrections)
   IDIPOL =      0    1-x, 2-y, 3-z, 4-all directions 
   EPSILON=  1.0000000 bulk dielectric constant

 Exchange correlation treatment:
   GGA     =    --    GGA type
   LEXCH   =     8    internal setting for exchange type
   VOSKOWN=      0    Vosko Wilk Nusair interpolation
   LHFCALC =     F    Hartree Fock is set to
   LHFONE  =     F    Hartree Fock one center treatment
   AEXX    =    0.0000 exact exchange contribution

 Linear response parameters
   LEPSILON=     F    determine dielectric tensor
   LRPA    =     F    only Hartree local field effects (RPA)
   LNABLA  =     F    use nabla operator in PAW spheres
   LVEL    =     F    velocity operator in full k-point grid
   LINTERFAST=   F  fast interpolation
   KINTER  =     0    interpolate to denser k-point grid
   CSHIFT  =0.1000    complex shift for real part using Kramers Kronig
   OMEGAMAX=  -1.0    maximum frequency
   DEG_THRESHOLD= 0.2000000E-02 threshold for treating states as degnerate
   RTIME   =   -0.100 relaxation time in fs
  (WPLASMAI=    0.000 imaginary part of plasma frequency in eV, 0.658/RTIME)
   DFIELD  = 0.0000000 0.0000000 0.0000000 field for delta impulse in time
 
 Orbital magnetization related:
   ORBITALMAG=     F  switch on orbital magnetization
   LCHIMAG   =     F  perturbation theory with respect to B field
   DQ        =  0.001000  dq finite difference perturbation B field
   LLRAUG    =     F  two centre corrections for induced B field



--------------------------------------------------------------------------------------------------------


 finite differences
   using selective dynamics as specified on POSCAR
   WARNING: If single coordinates had been selected the selection of coordinates
            is made according to the corresponding   d i r e c t   coordinates!
            Don't support selection of single cartesian coordinates -- sorry ...
  !
 charge density and potential will be updated during run
 non-spin polarized calculation
 RMM-DIIS sequential band-by-band and
  variant of blocked Davidson during initial phase
 perform sub-space diagonalisation
    before iterative eigenvector-optimisation
 modified Broyden-mixing scheme, WC =      100.0
 initial mixing is a Kerker type mixing with AMIX =  0.4000 and BMIX =      1.0000
 Hartree-type preconditioning will be used
 using additional bands            4
 real space projection scheme for non local part
 calculate Harris-corrections to forces 
   (improved forces if not selfconsistent)
 use gradient corrections 
 use of overlap-Matrix (Vanderbilt PP)
 Gauss-broadening in eV      SIGMA  =   0.01


--------------------------------------------------------------------------------------------------------


  energy-cutoff  :      400.00
  volume of cell :      815.00
      direct lattice vectors                 reciprocal lattice vectors
    10.547599792  0.000000000  0.000000000     0.094808299  0.054737597  0.000000000
    -5.273799896  9.134489369  0.000000000     0.000000000  0.109475194  0.000000000
     0.000000000  0.000000000  8.458999634     0.000000000  0.000000000  0.118217288

  length of vectors
    10.547599792 10.547599792  8.458999634     0.109475194  0.109475194  0.118217288


 
 k-points in units of 2pi/SCALE and weight: K-POINTS                                
   0.00000000  0.00000000  0.00000000       1.000
 
 k-points in reciprocal lattice and weights: K-POINTS                                
   0.00000000  0.00000000  0.00000000       1.000
 
 position of ions in fractional coordinates (direct lattice) 
   0.37904942  0.74457577  0.92536945
   0.40626012  0.82581219  0.93972309
 
 position of ions in cartesian coordinates  (Angst):
   0.07131791  6.80131950  7.82769984
  -0.07009909  7.54337270  7.94911725
 


--------------------------------------------------------------------------------------------------------


 k-point  1 :   0.0000 0.0000 0.0000  plane waves:   14811

 maximum and minimum number of plane-waves per node :     14811    14811

 maximum number of plane-waves:     14811
 maximum index in each direction: 
   IXMAX=   17   IYMAX=   17   IZMAX=   13
   IXMIN=  -17   IYMIN=  -17   IZMIN=  -13


 serial   3D FFT for wavefunctions
 parallel 3D FFT for charge:
    minimum data exchange during FFTs selected (reduces bandwidth)


 total amount of memory used by VASP MPI-rank0   118207. kBytes
=======================================================================

   base      :      30000. kBytes
   nonlr-proj:        151. kBytes
   fftplans  :      34148. kBytes
   grid      :      52721. kBytes
   one-center:          2. kBytes
   wavefun   :       1185. kBytes
 
     INWAV:  cpu time    0.0000: real time    0.0000
 Broyden mixing: mesh for mixing (old mesh)
   NGX = 35   NGY = 35   NGZ = 27
  (NGX  =108   NGY  =108   NGZ  = 84)
  gives a total of  33075 points

 initial charge density was supplied:
 charge density of overlapping atoms calculated
 number of electron       2.0000000 magnetization 
 keeping initial charge density in first step


--------------------------------------------------------------------------------------------------------


 Maximum index for non-local projection operator         1240
 Maximum index for augmentation-charges          706 (set IRDMAX)


--------------------------------------------------------------------------------------------------------


 First call to EWALD:  gamma=   0.190
 Maximum number of real-space cells 3x 3x 3
 Maximum number of reciprocal cells 3x 3x 3

    FEWALD:  cpu time    0.0110: real time    0.0014


--------------------------------------- Iteration      1(   1)  ---------------------------------------


    POTLOK:  cpu time    3.1677: real time    0.6496
    SETDIJ:  cpu time    0.0019: real time    0.0019
     EDDAV:  cpu time    2.0876: real time    0.2503
       DOS:  cpu time    0.0010: real time    0.0001
    --------------------------------------------
      LOOP:  cpu time    5.2584: real time    0.9019

 eigenvalue-minimisations  :    10
 total energy-change (2. order) : 0.3213297E+01  (-0.1615066E+02)
 number of electron       2.0000000 magnetization 
 augmentation part        2.0000000 magnetization 

 Free energy of the ion-electron system (eV)
  ---------------------------------------------------
  alpha Z        PSCENC =         0.01195684
  Ewald energy   TEWEN  =        10.07948779
  -Hartree energ DENC   =       -19.97795485
  -exchange      EXHF   =         0.00000000
  -V(xc)+E(xc)   XCENC  =         4.33973850
  PAW double counting   =         1.56265142       -1.58066687
  entropy T*S    EENTRO =        -0.00000000
  eigenvalues    EBANDS =       -16.17918084
  atomic energy  EATOM  =        24.95726533
  Solvation  Ediel_sol  =         0.00000000
  ---------------------------------------------------
  free energy    TOTEN  =         3.21329730 eV

  energy without entropy =        3.21329730  energy(sigma->0) =        3.21329730


--------------------------------------------------------------------------------------------------------




--------------------------------------- Iteration      1(   2)  ---------------------------------------


     EDDAV:  cpu time    2.7058: real time    0.3109
       DOS:  cpu time    0.0009: real time    0.0001
    --------------------------------------------
      LOOP:  cpu time    2.7068: real time    0.3110

 eigenvalue-minimisations  :    15
 total energy-change (2. order) :-0.1027725E+02  (-0.1027725E+02)
 number of electron       2.0000000 magnetization 
 augmentation part        2.0000000 magnetization 

 Free energy of the ion-electron system (eV)
  ---------------------------------------------------
  alpha Z        PSCENC =         0.01195684
  Ewald energy   TEWEN  =        10.07948779
  -Hartree energ DENC   =       -19.97795485
  -exchange      EXHF   =         0.00000000
  -V(xc)+E(xc)   XCENC  =         4.33973850
  PAW double counting   =         1.56265142       -1.58066687
  entropy T*S    EENTRO =        -0.00000000
  eigenvalues    EBANDS =       -26.45643130
  atomic energy  EATOM  =        24.95726533
  Solvation  Ediel_sol  =         0.00000000
  ---------------------------------------------------
  free energy    TOTEN  =        -7.06395316 eV

  energy without entropy =       -7.06395316  energy(sigma->0) =       -7.06395316


--------------------------------------------------------------------------------------------------------




--------------------------------------- Iteration      1(   3)  ---------------------------------------


     EDDAV:  cpu time    2.9245: real time    0.3171
       DOS:  cpu time    0.0013: real time    0.0001
    --------------------------------------------
      LOOP:  cpu time    2.9258: real time    0.3172

 eigenvalue-minimisations  :    15
 total energy-change (2. order) :-0.3383034E+00  (-0.3383034E+00)
 number of electron       2.0000000 magnetization 
 augmentation part        2.0000000 magnetization 

 Free energy of the ion-electron system (eV)
  ---------------------------------------------------
  alpha Z        PSCENC =         0.01195684
  Ewald energy   TEWEN  =        10.07948779
  -Hartree energ DENC   =       -19.97795485
  -exchange      EXHF   =         0.00000000
  -V(xc)+E(xc)   XCENC  =         4.33973850
  PAW double counting   =         1.56265142       -1.58066687
  entropy T*S    EENTRO =        -0.00000000
  eigenvalues    EBANDS =       -26.79473474
  atomic energy  EATOM  =        24.95726533
  Solvation  Ediel_sol  =         0.00000000
  ---------------------------------------------------
  free energy    TOTEN  =        -7.40225660 eV

  energy without entropy =       -7.40225660  energy(sigma->0) =       -7.40225660


--------------------------------------------------------------------------------------------------------




--------------------------------------- Iteration      1(   4)  ---------------------------------------


     EDDAV:  cpu time    2.3969: real time    0.2399
       DOS:  cpu time    0.0011: real time    0.0001
    --------------------------------------------
      LOOP:  cpu time    2.3980: real time    0.2400

 eigenvalue-minimisations  :    10
 total energy-change (2. order) :-0.4990616E-03  (-0.4990616E-03)
 number of electron       2.0000000 magnetization 
 augmentation part        2.0000000 magnetization 

 Free energy of the ion-electron system (eV)
  ---------------------------------------------------
  alpha Z        PSCENC =         0.01195684
  Ewald energy   TEWEN  =        10.07948779
  -Hartree energ DENC   =       -19.97795485
  -exchange      EXHF   =         0.00000000
  -V(xc)+E(xc)   XCENC  =         4.33973850
  PAW double counting   =         1.56265142       -1.58066687
  entropy T*S    EENTRO =        -0.00000000
  eigenvalues    EBANDS =       -26.79523380
  atomic energy  EATOM  =        24.95726533
  Solvation  Ediel_sol  =         0.00000000
  ---------------------------------------------------
  free energy    TOTEN  =        -7.40275566 eV

  energy without entropy =       -7.40275566  energy(sigma->0) =       -7.40275566


--------------------------------------------------------------------------------------------------------




--------------------------------------- Iteration      1(   5)  ---------------------------------------


     EDDAV:  cpu time    6.5672: real time    0.5685
       DOS:  cpu time    0.0018: real time    0.0001
    CHARGE:  cpu time    0.7678: real time    0.0587
    MIXING:  cpu time    0.4931: real time    0.0375
    --------------------------------------------
      LOOP:  cpu time    7.8303: real time    0.6649

 eigenvalue-minimisations  :    15
 total energy-change (2. order) :-0.2207380E-05  (-0.2207379E-05)
 number of electron       2.0000004 magnetization 
 augmentation part        0.0450951 magnetization 

 Broyden mixing:
  rms(total) = 0.42580E+00    rms(broyden)= 0.42567E+00
  rms(prec ) = 0.57323E+00
  weight for this iteration     100.00

 Free energy of the ion-electron system (eV)
  ---------------------------------------------------
  alpha Z        PSCENC =         0.01195684
  Ewald energy   TEWEN  =        10.07948779
  -Hartree energ DENC   =       -19.97795485
  -exchange      EXHF   =         0.00000000
  -V(xc)+E(xc)   XCENC  =         4.33973850
  PAW double counting   =         1.56265142       -1.58066687
  entropy T*S    EENTRO =        -0.00000000
  eigenvalues    EBANDS =       -26.79523601
  atomic energy  EATOM  =        24.95726533
  Solvation  Ediel_sol  =         0.00000000
  ---------------------------------------------------
  free energy    TOTEN  =        -7.40275787 eV

  energy without entropy =       -7.40275787  energy(sigma->0) =       -7.40275787


--------------------------------------------------------------------------------------------------------




--------------------------------------- Iteration      1(   6)  ---------------------------------------


    POTLOK:  cpu time    4.5042: real time    0.6913
    SETDIJ:  cpu time    0.0022: real time    0.0022
    EDDIAG:  cpu time    0.1395: real time    0.0319
  RMM-DIIS:  cpu time    3.9867: real time    0.3996
    ORTHCH:  cpu time    0.0168: real time    0.0015
       DOS:  cpu time    0.0009: real time    0.0001
    CHARGE:  cpu time    0.8443: real time    0.0844
    MIXING:  cpu time    0.3873: real time    0.0386
    --------------------------------------------
      LOOP:  cpu time    9.8820: real time    1.2497

 eigenvalue-minimisations  :    10
 total energy-change (2. order) : 0.4189084E+00  (-0.1769675E-01)
 number of electron       2.0000004 magnetization 
 augmentation part        0.0434009 magnetization 

 Broyden mixing:
  rms(total) = 0.23289E+00    rms(broyden)= 0.23288E+00
  rms(prec ) = 0.32122E+00
  weight for this iteration     100.00

 eigenvalues of (default mixing * dielectric matrix)
  average eigenvalue GAMMA=   2.1868
  2.1868

 Free energy of the ion-electron system (eV)
  ---------------------------------------------------
  alpha Z        PSCENC =         0.01195684
  Ewald energy   TEWEN  =        10.07948779
  -Hartree energ DENC   =       -22.38638822
  -exchange      EXHF   =         0.00000000
  -V(xc)+E(xc)   XCENC  =         4.68461822
  PAW double counting   =         4.11651396       -4.14742194
  entropy T*S    EENTRO =        -0.00000000
  eigenvalues    EBANDS =       -24.29988140
  atomic energy  EATOM  =        24.95726533
  Solvation  Ediel_sol  =         0.00000000
  ---------------------------------------------------
  free energy    TOTEN  =        -6.98384943 eV

  energy without entropy =       -6.98384943  energy(sigma->0) =       -6.98384943


--------------------------------------------------------------------------------------------------------




--------------------------------------- Iteration      1(   7)  ---------------------------------------


    POTLOK:  cpu time    2.8759: real time    0.6987
    SETDIJ:  cpu time    0.0019: real time    0.0019
    EDDIAG:  cpu time    0.4607: real time    0.0742
  RMM-DIIS:  cpu time    4.4237: real time    0.5223
    ORTHCH:  cpu time    0.0585: real time    0.0072
       DOS:  cpu time    0.0010: real time    0.0001
    CHARGE:  cpu time    1.0781: real time    0.1240
    MIXING:  cpu time    0.3561: real time    0.0396
    --------------------------------------------
      LOOP:  cpu time    9.2559: real time    1.4680

 eigenvalue-minimisations  :    10
 total energy-change (2. order) : 0.2319928E+00  (-0.4864700E-01)
 number of electron       2.0000003 magnetization 
 augmentation part        0.0406340 magnetization 

 Broyden mixing:
  rms(total) = 0.27830E-01    rms(broyden)= 0.27749E-01
  rms(prec ) = 0.41541E-01
  weight for this iteration     100.00

 eigenvalues of (default mixing * dielectric matrix)
  average eigenvalue GAMMA=   2.4418
  2.4418  2.4418

 Free energy of the ion-electron system (eV)
  ---------------------------------------------------
  alpha Z        PSCENC =         0.01195684
  Ewald energy   TEWEN  =        10.07948779
  -Hartree energ DENC   =       -26.14651050
  -exchange      EXHF   =         0.00000000
  -V(xc)+E(xc)   XCENC  =         5.23116324
  PAW double counting   =         8.75489625       -8.80629785
  entropy T*S    EENTRO =        -0.00000000
  eigenvalues    EBANDS =       -20.83381773
  atomic energy  EATOM  =        24.95726533
  Solvation  Ediel_sol  =         0.00000000
  ---------------------------------------------------
  free energy    TOTEN  =        -6.75185664 eV

  energy without entropy =       -6.75185664  energy(sigma->0) =       -6.75185664


--------------------------------------------------------------------------------------------------------




--------------------------------------- Iteration      1(   8)  ---------------------------------------


    POTLOK:  cpu time    1.9997: real time    0.6027
    SETDIJ:  cpu time    0.0019: real time    0.0019
    EDDIAG:  cpu time    0.2171: real time    0.0439
  RMM-DIIS:  cpu time    2.6428: real time    0.3306
    ORTHCH:  cpu time    0.0225: real time    0.0028
       DOS:  cpu time    0.0006: real time    0.0001
    CHARGE:  cpu time    0.8895: real time    0.1113
    MIXING:  cpu time    0.4763: real time    0.0596
    --------------------------------------------
      LOOP:  cpu time    6.2503: real time    1.1530

 eigenvalue-minimisations  :    10
 total energy-change (2. order) :-0.3580704E-02  (-0.5938037E-03)
 number of electron       2.0000003 magnetization 
 augmentation part        0.0407234 magnetization 

 Broyden mixing:
  rms(total) = 0.22596E-01    rms(broyden)= 0.22593E-01
  rms(prec ) = 0.32903E-01
  weight for this iteration     100.00

 eigenvalues of (default mixing * dielectric matrix)
  average eigenvalue GAMMA=   2.0790
  1.1180  2.9659  2.1531

 Free energy of the ion-electron system (eV)
  ---------------------------------------------------
  alpha Z        PSCENC =         0.01195684
  Ewald energy   TEWEN  =        10.07948779
  -Hartree energ DENC   =       -26.00975236
  -exchange      EXHF   =         0.00000000
  -V(xc)+E(xc)   XCENC  =         5.19857627
  PAW double counting   =         7.66576175       -7.71120304
  entropy T*S    EENTRO =        -0.00000000
  eigenvalues    EBANDS =       -20.94752993
  atomic energy  EATOM  =        24.95726533
  Solvation  Ediel_sol  =         0.00000000
  ---------------------------------------------------
  free energy    TOTEN  =        -6.75543735 eV

  energy without entropy =       -6.75543735  energy(sigma->0) =       -6.75543735


--------------------------------------------------------------------------------------------------------




--------------------------------------- Iteration      1(   9)  ---------------------------------------


    POTLOK:  cpu time    2.1871: real time    0.6291
    SETDIJ:  cpu time    0.0020: real time    0.0019
    EDDIAG:  cpu time    0.0419: real time    0.0220
  RMM-DIIS:  cpu time    1.5289: real time    0.1913
    ORTHCH:  cpu time    0.0121: real time    0.0015
       DOS:  cpu time    0.0006: real time    0.0001
    CHARGE:  cpu time    0.2947: real time    0.0369
    MIXING:  cpu time    0.1536: real time    0.0192
    --------------------------------------------
      LOOP:  cpu time    4.2210: real time    0.9021

 eigenvalue-minimisations  :    10
 total energy-change (2. order) : 0.4240029E-02  (-0.5889758E-03)
 number of electron       2.0000003 magnetization 
 augmentation part        0.0404560 magnetization 

 Broyden mixing:
  rms(total) = 0.35263E-02    rms(broyden)= 0.35158E-02
  rms(prec ) = 0.88037E-02
  weight for this iteration     100.00

 eigenvalues of (default mixing * dielectric matrix)
  average eigenvalue GAMMA=   2.6129
  4.4267  1.0094  2.5077  2.5077

 Free energy of the ion-electron system (eV)
  ---------------------------------------------------
  alpha Z        PSCENC =         0.01195684
  Ewald energy   TEWEN  =        10.07948779
  -Hartree energ DENC   =       -26.52713475
  -exchange      EXHF   =         0.00000000
  -V(xc)+E(xc)   XCENC  =         5.26853012
  PAW double counting   =         8.16967253       -8.21713724
  entropy T*S    EENTRO =        -0.00000000
  eigenvalues    EBANDS =       -20.49383794
  atomic energy  EATOM  =        24.95726533
  Solvation  Ediel_sol  =         0.00000000
  ---------------------------------------------------
  free energy    TOTEN  =        -6.75119732 eV

  energy without entropy =       -6.75119732  energy(sigma->0) =       -6.75119732


--------------------------------------------------------------------------------------------------------




--------------------------------------- Iteration      1(  10)  ---------------------------------------


    POTLOK:  cpu time    2.6857: real time    0.4400
    SETDIJ:  cpu time    0.0019: real time    0.0019
    EDDIAG:  cpu time    0.0385: real time    0.0216
  RMM-DIIS:  cpu time    1.9054: real time    0.2294
    ORTHCH:  cpu time    0.0695: real time    0.0085
       DOS:  cpu time    0.0008: real time    0.0001
    CHARGE:  cpu time    0.3064: real time    0.0335
    MIXING:  cpu time    0.1812: real time    0.0202
    --------------------------------------------
      LOOP:  cpu time    5.1894: real time    0.7551

 eigenvalue-minimisations  :    10
 total energy-change (2. order) :-0.2947724E-02  (-0.9814328E-04)
 number of electron       2.0000003 magnetization 
 augmentation part        0.0404052 magnetization 

 Broyden mixing:
  rms(total) = 0.40733E-02    rms(broyden)= 0.40724E-02
  rms(prec ) = 0.57989E-02
  weight for this iteration     100.00

 eigenvalues of (default mixing * dielectric matrix)
  average eigenvalue GAMMA=   2.2210
  4.1848  2.7058  2.2781  0.9682  0.9682

 Free energy of the ion-electron system (eV)
  ---------------------------------------------------
  alpha Z        PSCENC =         0.01195684
  Ewald energy   TEWEN  =        10.07948779
  -Hartree energ DENC   =       -26.63362378
  -exchange      EXHF   =         0.00000000
  -V(xc)+E(xc)   XCENC  =         5.27421722
  PAW double counting   =         8.23818827       -8.28628158
  entropy T*S    EENTRO =        -0.00000000
  eigenvalues    EBANDS =       -20.39535512
  atomic energy  EATOM  =        24.95726533
  Solvation  Ediel_sol  =         0.00000000
  ---------------------------------------------------
  free energy    TOTEN  =        -6.75414504 eV

  energy without entropy =       -6.75414504  energy(sigma->0) =       -6.75414504


--------------------------------------------------------------------------------------------------------




--------------------------------------- Iteration      1(  11)  ---------------------------------------


    POTLOK:  cpu time    1.7691: real time    0.4433
    SETDIJ:  cpu time    0.0019: real time    0.0019
    EDDIAG:  cpu time    0.0427: real time    0.0209
  RMM-DIIS:  cpu time    5.2781: real time    0.5716
    ORTHCH:  cpu time    0.0951: real time    0.0086
       DOS:  cpu time    0.0021: real time    0.0001
    CHARGE:  cpu time    1.2961: real time    0.1186
    MIXING:  cpu time    0.5461: real time    0.0476
    --------------------------------------------
      LOOP:  cpu time    9.0337: real time    1.2126

 eigenvalue-minimisations  :    10
 total energy-change (2. order) :-0.8027533E-03  (-0.1360420E-04)
 number of electron       2.0000003 magnetization 
 augmentation part        0.0404364 magnetization 

 Broyden mixing:
  rms(total) = 0.10194E-02    rms(broyden)= 0.10194E-02
  rms(prec ) = 0.23642E-02
  weight for this iteration     100.00

 eigenvalues of (default mixing * dielectric matrix)
  average eigenvalue GAMMA=   2.7444
  5.6481  3.8681  2.7240  2.2082  1.0441  0.9738

 Free energy of the ion-electron system (eV)
  ---------------------------------------------------
  alpha Z        PSCENC =         0.01195684
  Ewald energy   TEWEN  =        10.07948779
  -Hartree energ DENC   =       -26.56437040
  -exchange      EXHF   =         0.00000000
  -V(xc)+E(xc)   XCENC  =         5.26370198
  PAW double counting   =         8.12926940       -8.17682049
  entropy T*S    EENTRO =        -0.00000000
  eigenvalues    EBANDS =       -20.45543823
  atomic energy  EATOM  =        24.95726533
  Solvation  Ediel_sol  =         0.00000000
  ---------------------------------------------------
  free energy    TOTEN  =        -6.75494780 eV

  energy without entropy =       -6.75494780  energy(sigma->0) =       -6.75494780


--------------------------------------------------------------------------------------------------------




--------------------------------------- Iteration      1(  12)  ---------------------------------------


    POTLOK:  cpu time    2.1111: real time    0.5027
    SETDIJ:  cpu time    0.0019: real time    0.0019
    EDDIAG:  cpu time    0.2805: real time    0.0445
  RMM-DIIS:  cpu time    7.1650: real time    0.6835
    ORTHCH:  cpu time    0.0301: real time    0.0025
       DOS:  cpu time    0.0010: real time    0.0001
    CHARGE:  cpu time    0.9040: real time    0.0859
    MIXING:  cpu time    0.5631: real time    0.0517
    --------------------------------------------
      LOOP:  cpu time   11.0542: real time    1.3728

 eigenvalue-minimisations  :    10
 total energy-change (2. order) :-0.1600374E-02  (-0.3273099E-04)
 number of electron       2.0000003 magnetization 
 augmentation part        0.0404330 magnetization 

 Broyden mixing:
  rms(total) = 0.72761E-03    rms(broyden)= 0.72761E-03
  rms(prec ) = 0.10169E-02
  weight for this iteration     100.00

 eigenvalues of (default mixing * dielectric matrix)
  average eigenvalue GAMMA=   2.8896
  6.2007  0.9965  1.0603  3.8060  2.9808  2.9808  2.2019

 Free energy of the ion-electron system (eV)
  ---------------------------------------------------
  alpha Z        PSCENC =         0.01195684
  Ewald energy   TEWEN  =        10.07948779
  -Hartree energ DENC   =       -26.56686366
  -exchange      EXHF   =         0.00000000
  -V(xc)+E(xc)   XCENC  =         5.26244343
  PAW double counting   =         8.12006894       -8.16747480
  entropy T*S    EENTRO =        -0.00000000
  eigenvalues    EBANDS =       -20.45343202
  atomic energy  EATOM  =        24.95726533
  Solvation  Ediel_sol  =         0.00000000
  ---------------------------------------------------
  free energy    TOTEN  =        -6.75654817 eV

  energy without entropy =       -6.75654817  energy(sigma->0) =       -6.75654817


--------------------------------------------------------------------------------------------------------




--------------------------------------- Iteration      1(  13)  ---------------------------------------


    POTLOK:  cpu time    2.4051: real time    0.5183
    SETDIJ:  cpu time    0.0020: real time    0.0020
    EDDIAG:  cpu time    0.3877: real time    0.0512
  RMM-DIIS:  cpu time    3.7409: real time    0.3427
    ORTHCH:  cpu time    0.0675: real time    0.0065
       DOS:  cpu time    0.0013: real time    0.0001
    CHARGE:  cpu time    0.7290: real time    0.0657
    MIXING:  cpu time    0.5929: real time    0.0547
    --------------------------------------------
      LOOP:  cpu time    7.9267: real time    1.0412

 eigenvalue-minimisations  :    10
 total energy-change (2. order) :-0.1165862E-03  (-0.1283548E-05)
 number of electron       2.0000003 magnetization 
 augmentation part        0.0404222 magnetization 

 Broyden mixing:
  rms(total) = 0.46641E-03    rms(broyden)= 0.46635E-03
  rms(prec ) = 0.63089E-03
  weight for this iteration     100.00

 eigenvalues of (default mixing * dielectric matrix)
  average eigenvalue GAMMA=   2.7895
  7.0210  4.2679  3.1941  2.6586  2.1818  1.0348  1.0348  0.9227

 Free energy of the ion-electron system (eV)
  ---------------------------------------------------
  alpha Z        PSCENC =         0.01195684
  Ewald energy   TEWEN  =        10.07948779
  -Hartree energ DENC   =       -26.58003754
  -exchange      EXHF   =         0.00000000
  -V(xc)+E(xc)   XCENC  =         5.26402348
  PAW double counting   =         8.14613214       -8.19370466
  entropy T*S    EENTRO =        -0.00000000
  eigenvalues    EBANDS =       -20.44178813
  atomic energy  EATOM  =        24.95726533
  Solvation  Ediel_sol  =         0.00000000
  ---------------------------------------------------
  free energy    TOTEN  =        -6.75666476 eV

  energy without entropy =       -6.75666476  energy(sigma->0) =       -6.75666476


--------------------------------------------------------------------------------------------------------




--------------------------------------- Iteration      1(  14)  ---------------------------------------


    POTLOK:  cpu time    1.9704: real time    0.5653
    SETDIJ:  cpu time    0.0019: real time    0.0019
    EDDIAG:  cpu time    0.1331: real time    0.0296
  RMM-DIIS:  cpu time    4.4434: real time    0.4237
    ORTHCH:  cpu time    0.0192: real time    0.0018
       DOS:  cpu time    0.0006: real time    0.0001
    CHARGE:  cpu time    0.9614: real time    0.0919
    MIXING:  cpu time    0.5591: real time    0.0544
    --------------------------------------------
      LOOP:  cpu time    8.0885: real time    1.1685

 eigenvalue-minimisations  :    10
 total energy-change (2. order) :-0.6793565E-04  (-0.5845758E-06)
 number of electron       2.0000003 magnetization 
 augmentation part        0.0404241 magnetization 

 Broyden mixing:
  rms(total) = 0.78736E-04    rms(broyden)= 0.78735E-04
  rms(prec ) = 0.12109E-03
  weight for this iteration     100.00

 eigenvalues of (default mixing * dielectric matrix)
  average eigenvalue GAMMA=   2.8259
  7.2931  4.5507  3.5898  2.6919  2.2077  2.0300  0.9574  1.0565  1.0565

 Free energy of the ion-electron system (eV)
  ---------------------------------------------------
  alpha Z        PSCENC =         0.01195684
  Ewald energy   TEWEN  =        10.07948779
  -Hartree energ DENC   =       -26.57527979
  -exchange      EXHF   =         0.00000000
  -V(xc)+E(xc)   XCENC  =         5.26326109
  PAW double counting   =         8.13760979       -8.18514480
  entropy T*S    EENTRO =        -0.00000000
  eigenvalues    EBANDS =       -20.44588893
  atomic energy  EATOM  =        24.95726533
  Solvation  Ediel_sol  =         0.00000000
  ---------------------------------------------------
  free energy    TOTEN  =        -6.75673269 eV

  energy without entropy =       -6.75673269  energy(sigma->0) =       -6.75673269


--------------------------------------------------------------------------------------------------------




--------------------------------------- Iteration      1(  15)  ---------------------------------------


    POTLOK:  cpu time    2.2428: real time    0.5914
    SETDIJ:  cpu time    0.0019: real time    0.0019
    EDDIAG:  cpu time    0.1283: real time    0.0312
  RMM-DIIS:  cpu time    3.1706: real time    0.3178
    ORTHCH:  cpu time    0.0204: real time    0.0018
       DOS:  cpu time    0.0006: real time    0.0001
    CHARGE:  cpu time    0.9408: real time    0.0941
    MIXING:  cpu time    0.5953: real time    0.0595
    --------------------------------------------
      LOOP:  cpu time    7.1006: real time    1.0977

 eigenvalue-minimisations  :     9
 total energy-change (2. order) :-0.8478517E-05  (-0.4145915E-07)
 number of electron       2.0000003 magnetization 
 augmentation part        0.0404243 magnetization 

 Broyden mixing:
  rms(total) = 0.42895E-04    rms(broyden)= 0.42893E-04
  rms(prec ) = 0.74767E-04
  weight for this iteration     100.00

 eigenvalues of (default mixing * dielectric matrix)
  average eigenvalue GAMMA=   2.8121
  7.4210  4.8895  3.6333  3.1958  2.6030  2.1549  0.9601  1.0260  1.0775  1.1603

 Free energy of the ion-electron system (eV)
  ---------------------------------------------------
  alpha Z        PSCENC =         0.01195684
  Ewald energy   TEWEN  =        10.07948779
  -Hartree energ DENC   =       -26.57593775
  -exchange      EXHF   =         0.00000000
  -V(xc)+E(xc)   XCENC  =         5.26332807
  PAW double counting   =         8.13716152       -8.18468591
  entropy T*S    EENTRO =        -0.00000000
  eigenvalues    EBANDS =       -20.44531705
  atomic energy  EATOM  =        24.95726533
  Solvation  Ediel_sol  =         0.00000000
  ---------------------------------------------------
  free energy    TOTEN  =        -6.75674117 eV

  energy without entropy =       -6.75674117  energy(sigma->0) =       -6.75674117


--------------------------------------------------------------------------------------------------------




--------------------------------------- Iteration      1(  16)  ---------------------------------------


    POTLOK:  cpu time    1.2299: real time    0.5592
    SETDIJ:  cpu time    0.0019: real time    0.0019
    EDDIAG:  cpu time    0.1261: real time    0.0287
  RMM-DIIS:  cpu time    3.9379: real time    0.3947
    ORTHCH:  cpu time    0.0185: real time    0.0018
       DOS:  cpu time    0.0006: real time    0.0001
    CHARGE:  cpu time    0.8565: real time    0.0865
    MIXING:  cpu time    0.7317: real time    0.0726
    --------------------------------------------
      LOOP:  cpu time    6.9032: real time    1.1455

 eigenvalue-minimisations  :     9
 total energy-change (2. order) :-0.2384666E-05  (-0.3684557E-07)
 number of electron       2.0000003 magnetization 
 augmentation part        0.0404251 magnetization 

 Broyden mixing:
  rms(total) = 0.10632E-04    rms(broyden)= 0.10612E-04
  rms(prec ) = 0.23783E-04
  weight for this iteration     100.00

 eigenvalues of (default mixing * dielectric matrix)
  average eigenvalue GAMMA=   2.8674
  7.4771  4.9350  4.1770  3.0886  3.0886  2.1470  2.5676  0.9667  1.0437  1.0437
  1.0058

 Free energy of the ion-electron system (eV)
  ---------------------------------------------------
  alpha Z        PSCENC =         0.01195684
  Ewald energy   TEWEN  =        10.07948779
  -Hartree energ DENC   =       -26.57469620
  -exchange      EXHF   =         0.00000000
  -V(xc)+E(xc)   XCENC  =         5.26315044
  PAW double counting   =         8.13627630       -8.18379476
  entropy T*S    EENTRO =        -0.00000000
  eigenvalues    EBANDS =       -20.44638929
  atomic energy  EATOM  =        24.95726533
  Solvation  Ediel_sol  =         0.00000000
  ---------------------------------------------------
  free energy    TOTEN  =        -6.75674356 eV

  energy without entropy =       -6.75674356  energy(sigma->0) =       -6.75674356


--------------------------------------------------------------------------------------------------------




--------------------------------------- Iteration      1(  17)  ---------------------------------------


    POTLOK:  cpu time    3.6685: real time    0.6990
    SETDIJ:  cpu time    0.0019: real time    0.0019
    EDDIAG:  cpu time    0.1268: real time    0.0297
  RMM-DIIS:  cpu time    3.4830: real time    0.3492
    ORTHCH:  cpu time    0.0827: real time    0.0081
       DOS:  cpu time    0.0008: real time    0.0001
    --------------------------------------------
      LOOP:  cpu time    7.3635: real time    1.0880

 eigenvalue-minimisations  :     9
 total energy-change (2. order) :-0.5174369E-06  (-0.6436366E-08)
 number of electron       2.0000003 magnetization 
 augmentation part        0.0404251 magnetization 

 Free energy of the ion-electron system (eV)
  ---------------------------------------------------
  alpha Z        PSCENC =         0.01195684
  Ewald energy   TEWEN  =        10.07948779
  -Hartree energ DENC   =       -26.57473679
  -exchange      EXHF   =         0.00000000
  -V(xc)+E(xc)   XCENC  =         5.26316217
  PAW double counting   =         8.13576843       -8.18328613
  entropy T*S    EENTRO =        -0.00000000
  eigenvalues    EBANDS =       -20.44636170
  atomic energy  EATOM  =        24.95726533
  Solvation  Ediel_sol  =         0.00000000
  ---------------------------------------------------
  free energy    TOTEN  =        -6.75674407 eV

  energy without entropy =       -6.75674407  energy(sigma->0) =       -6.75674407


--------------------------------------------------------------------------------------------------------




 average (electrostatic) potential at core
  the test charge radii are     0.5201
  (the norm of the test charge is              1.0000)
       1 -41.4853       2 -41.4859
 
 
 
 E-fermi : -10.1549     XC(G=0):  -0.4635     alpha+bet : -0.0678


 k-point     1 :       0.0000    0.0000    0.0000
  band No.  band energies     occupation 
      1     -10.2232      2.00000
      2      -0.1940      0.00000
      3       0.3355      0.00000
      4       1.0080      0.00000
      5       1.3096      0.00000


--------------------------------------------------------------------------------------------------------


 soft charge-density along one line, spin component           1
         0         1         2         3         4         5         6         7         8         9
 total charge-density along one line
 
 pseudopotential strength for first ion, spin component:           1
 -2.343  -0.011  -0.002  -0.000   0.000
 -0.011   0.049  -0.002  -0.000   0.000
 -0.002  -0.002  -0.337   0.001  -0.001
 -0.000  -0.000   0.001  -0.342  -0.000
  0.000   0.000  -0.001  -0.000  -0.342
 total augmentation occupancy for first ion, spin component:           1
  1.627  -0.476   0.253   0.041  -0.048
 -0.476   0.139  -0.074  -0.012   0.014
  0.253  -0.074   0.039   0.006  -0.007
  0.041  -0.012   0.006   0.001  -0.001
 -0.048   0.014  -0.007  -0.001   0.001


------------------------ aborting loop because EDIFF is reached ----------------------------------------


    CHARGE:  cpu time    1.1002: real time    0.1098
    FORLOC:  cpu time    0.4710: real time    0.0468
    FORNL :  cpu time    0.6232: real time    0.0625
    STRESS:  cpu time    0.2538: real time    0.1332
    FORHAR:  cpu time    0.1502: real time    0.1503
    MIXING:  cpu time    0.2281: real time    0.0439
    OFIELD:  cpu time    0.0004: real time    0.0000

  DFT-D2 method for vdW energy calculation
  -------------------------------------------------------------------

  Parameters of vdW forcefield:
         C6(Jnm^6/mol)     R0(A)
   -----------------------------
   H        0.140          1.001

  IVDW =   1
  VDW_RADIUS =    30.000 A
  VDW_S6 =     0.750
  VDW_SR =     1.000
  VDW_D =    20.000
  LVDW_EWALD = F

  Number of pair interactions contributing to vdW energy:     433
  Edisp (eV):   -0.00005
    FORVDW:  cpu time    0.2363: real time    0.0261

  FORCE on cell =-STRESS in cart. coord.  units (eV):
  Direction    XX          YY          ZZ          XY          YZ          ZX
  --------------------------------------------------------------------------------------
  Alpha Z     0.01196     0.01196     0.01196
  Ewald      -2.68479    14.37732    -1.61304    -3.37444     2.88549    -0.54990
  Hartree     7.77547     9.83628     8.96334    -0.40766     0.34358    -0.06547
  E(xc)      -5.92466    -5.72360    -5.92664    -0.03976     0.03414    -0.00650
  Local     -14.64477   -26.97108   -16.97229     2.43803    -2.07523     0.39534
  n-local    -5.33765    -6.15206    -5.33001     0.16108    -0.13843     0.02618
  augment     0.26248     0.20468     0.26290     0.01131    -0.00987     0.00191
  Kinetic    20.40990    13.93373    20.47347     1.28077    -1.09960     0.20946
  Fock        0.00000     0.00000     0.00000     0.00000     0.00000     0.00000
  vdW        -0.00004    -0.00001    -0.00008    -0.00001     0.00001    -0.00000
  -------------------------------------------------------------------------------------
  Total      -0.13211    -0.48278    -0.13040     0.06933    -0.05991     0.01102
  in kB      -0.25971    -0.94908    -0.25635     0.13628    -0.11778     0.02166
  external pressure =       -0.49 kB  Pullay stress =        0.00 kB


 VOLUME and BASIS-vectors are now :
 -----------------------------------------------------------------------------
  energy-cutoff  :      400.00
  volume of cell :      815.00
      direct lattice vectors                 reciprocal lattice vectors
    10.547599792  0.000000000  0.000000000     0.094808299  0.054737597  0.000000000
    -5.273799896  9.134489369  0.000000000     0.000000000  0.109475194  0.000000000
     0.000000000  0.000000000  8.458999634     0.000000000  0.000000000  0.118217288

  length of vectors
    10.547599792 10.547599792  8.458999634     0.109475194  0.109475194  0.118217288


 FORCES acting on ions
    electron-ion (+dipol)            ewald-force                    non-local-force                 convergence-correction
 -----------------------------------------------------------------------------------------------
   -.373E+01 0.196E+02 0.319E+01   0.454E+01 -.238E+02 -.389E+01   -.896E+00 0.471E+01 0.770E+00   0.145E-04 -.761E-04 -.122E-04
   0.373E+01 -.196E+02 -.319E+01   -.454E+01 0.238E+02 0.389E+01   0.896E+00 -.471E+01 -.770E+00   -.145E-04 0.761E-04 0.122E-04
 -----------------------------------------------------------------------------------------------
   -.249E-04 0.191E-04 -.219E-04   0.000E+00 0.000E+00 0.000E+00   0.000E+00 0.000E+00 0.000E+00   -.799E-11 0.359E-09 -.782E-09
 
 
 POSITION                                       TOTAL-FORCE (eV/Angst)
 -----------------------------------------------------------------------------------
      0.07132      6.80132      7.82770        -0.084311      0.447982      0.072720
     -0.07010      7.54337      7.94912         0.084311     -0.447982     -0.072720
 -----------------------------------------------------------------------------------
    total drift:                               -0.000025      0.000019     -0.000022


--------------------------------------------------------------------------------------------------------



  FREE ENERGIE OF THE ION-ELECTRON SYSTEM (eV)
  ---------------------------------------------------
  free  energy   TOTEN  =        -6.75679527 eV

  energy  without entropy=       -6.75679527  energy(sigma->0) =       -6.75679527
 


--------------------------------------------------------------------------------------------------------


    POTLOK:  cpu time    2.7434: real time    0.6700


--------------------------------------------------------------------------------------------------------


 stress matrix after NEB project (eV)
     -0.13211      0.06933      0.01102
      0.06933     -0.48278     -0.05991
      0.01102     -0.05991     -0.13040
  FORCES: max atom, RMS     0.461610    0.461610
  FORCE total and by dimension    0.652816    0.447982
  Stress total and by dimension    0.533450    0.482780
 Finite differences:
   Step               POTIM =   2.000000000000000E-002
   Degrees of freedom DOF   =            6
  LATTYP: Found a hexagonal cell.
 ALAT       =    10.5475997925
 C/A-ratio  =     0.8019833706
  
  Lattice vectors:
  
 A1 = (  10.5475997925,   0.0000000000,   0.0000000000)
 A2 = (  -5.2737998962,   9.1344893692,   0.0000000000)
 A3 = (   0.0000000000,   0.0000000000,   8.4589996338)


Analysis of symmetry for initial positions (statically):
=====================================================================
 Subroutine PRICEL returns:
 Original cell was already a primitive cell.
 

 Routine SETGRP: Setting up the symmetry group for a 
 hexagonal supercell.


 Subroutine GETGRP returns: Found  2 space group operations
 (whereof  1 operations were pure point group operations)
 out of a pool of 24 trial point group operations.


The static configuration has the point symmetry C_1 .
 The point group associated with its full space group is S_2 .


Analysis of symmetry for dynamics (positions and initial velocities):
=====================================================================
 Subroutine PRICEL returns:
 Original cell was already a primitive cell.
 

 Routine SETGRP: Setting up the symmetry group for a 
 hexagonal supercell.


 Subroutine GETGRP returns: Found  2 space group operations
 (whereof  1 operations were pure point group operations)
 out of a pool of 24 trial point group operations.


The dynamic configuration has the point symmetry C_1 .
 The point group associated with its full space group is S_2 .


Analysis of constrained symmetry for selective dynamics:
=====================================================================
 Subroutine PRICEL returns:
 Original cell was already a primitive cell.
 

 Routine SETGRP: Setting up the symmetry group for a 
 hexagonal supercell.


 Subroutine GETGRP returns: Found  2 space group operations
 (whereof  1 operations were pure point group operations)
 out of a pool of 24 trial point group operations.


The constrained configuration has the point symmetry C_1 .
 The point group associated with its full space group is S_2 .


 Subroutine INISYM returns: Found  2 space group operations
 (whereof  1 operations are pure point group operations),
 and found     1 'primitive' translations

 
 KPOINTS: K-POINTS                                

Automatic generation of k-mesh.
Space group operators:
 irot       det(A)        alpha          n_x          n_y          n_z        tau_x        tau_y        tau_z
    1     1.000000     0.000000     1.000000     0.000000     0.000000     0.000000     0.000000     0.000000
    2    -1.000000     0.000000     1.000000     0.000000     0.000000     0.787206     0.570388     0.865093
 
 Subroutine IBZKPT returns following result:
 ===========================================
 
 Found      1 irreducible k-points:
 
 Following reciprocal coordinates:
            Coordinates               Weight
  0.000000  0.000000  0.000000      1.000000
 
 Following cartesian coordinates:
            Coordinates               Weight
  0.000000  0.000000  0.000000      1.000000
 
    WAVPRE:  cpu time    0.0923: real time    0.0941
    FEWALD:  cpu time    0.0003: real time    0.0003
    ORTHCH:  cpu time    0.0952: real time    0.0189
     LOOP+:  cpu time  119.5582: real time   17.4658


--------------------------------------- Iteration      2(   1)  ---------------------------------------


    POTLOK:  cpu time    2.8403: real time    0.6475
    SETDIJ:  cpu time    0.0018: real time    0.0018
     EDDAV:  cpu time    2.4402: real time    0.2921
       DOS:  cpu time    0.0007: real time    0.0001
    CHARGE:  cpu time    0.7048: real time    0.0828
    MIXING:  cpu time    0.2923: real time    0.0346
    --------------------------------------------
      LOOP:  cpu time    6.2805: real time    1.0590

 eigenvalue-minimisations  :    10
 total energy-change (2. order) : 0.2004353E-02  (-0.1403940E-01)
 number of electron       2.0000004 magnetization 
 augmentation part        0.0401896 magnetization 

  free energy =  -0.675473920264E+01  energy without entropy=  -0.675473920264E+01


--------------------------------------------------------------------------------------------------------




--------------------------------------- Iteration      2(   2)  ---------------------------------------


    POTLOK:  cpu time    2.1877: real time    0.5734
    SETDIJ:  cpu time    0.0019: real time    0.0019
    EDDIAG:  cpu time    0.0916: real time    0.0269
  RMM-DIIS:  cpu time    1.8763: real time    0.2348
    ORTHCH:  cpu time    0.0132: real time    0.0017
       DOS:  cpu time    0.0004: real time    0.0001
    CHARGE:  cpu time    0.5670: real time    0.0710
    MIXING:  cpu time    0.2933: real time    0.0367
    --------------------------------------------
      LOOP:  cpu time    5.0314: real time    0.9463

 eigenvalue-minimisations  :    10
 total energy-change (2. order) : 0.3322919E-04  (-0.4476498E-04)
 number of electron       2.0000004 magnetization 
 augmentation part        0.0402103 magnetization 

 eigenvalues of (default mixing * dielectric matrix)
  average eigenvalue GAMMA=   2.5214
  2.5214

  free energy =  -0.675470597344E+01  energy without entropy=  -0.675470597344E+01


--------------------------------------------------------------------------------------------------------




--------------------------------------- Iteration      2(   3)  ---------------------------------------


    POTLOK:  cpu time    2.4476: real time    0.5655
    SETDIJ:  cpu time    0.0029: real time    0.0029
    EDDIAG:  cpu time    0.0571: real time    0.0248
  RMM-DIIS:  cpu time    2.2452: real time    0.2511
    ORTHCH:  cpu time    0.0108: real time    0.0012
       DOS:  cpu time    0.0013: real time    0.0001
    CHARGE:  cpu time    0.2992: real time    0.0333
    MIXING:  cpu time    0.1782: real time    0.0198
    --------------------------------------------
      LOOP:  cpu time    5.2423: real time    0.8987

 eigenvalue-minimisations  :    10
 total energy-change (2. order) : 0.1503272E-04  (-0.1013501E-04)
 number of electron       2.0000004 magnetization 
 augmentation part        0.0402295 magnetization 

 eigenvalues of (default mixing * dielectric matrix)
  average eigenvalue GAMMA=   2.0376
  1.4952  2.5800

  free energy =  -0.675469094072E+01  energy without entropy=  -0.675469094072E+01


--------------------------------------------------------------------------------------------------------




--------------------------------------- Iteration      2(   4)  ---------------------------------------


    POTLOK:  cpu time    2.1598: real time    0.3853
    SETDIJ:  cpu time    0.0019: real time    0.0019
    EDDIAG:  cpu time    0.0648: real time    0.0270
  RMM-DIIS:  cpu time    5.3736: real time    0.5340
    ORTHCH:  cpu time    0.0826: real time    0.0081
       DOS:  cpu time    0.0009: real time    0.0001
    CHARGE:  cpu time    0.6971: real time    0.0662
    MIXING:  cpu time    0.4024: real time    0.0383
    --------------------------------------------
      LOOP:  cpu time    8.7833: real time    1.0608

 eigenvalue-minimisations  :    10
 total energy-change (2. order) :-0.3612865E-05  (-0.1219469E-06)
 number of electron       2.0000004 magnetization 
 augmentation part        0.0402294 magnetization 

 eigenvalues of (default mixing * dielectric matrix)
  average eigenvalue GAMMA=   2.0733
  1.0110  2.4600  2.7489

  free energy =  -0.675469455359E+01  energy without entropy=  -0.675469455359E+01


--------------------------------------------------------------------------------------------------------




--------------------------------------- Iteration      2(   5)  ---------------------------------------


    POTLOK:  cpu time    1.4957: real time    0.4493
    SETDIJ:  cpu time    0.0018: real time    0.0018
    EDDIAG:  cpu time    0.1236: real time    0.0283
  RMM-DIIS:  cpu time    5.5944: real time    0.5375
    ORTHCH:  cpu time    0.0185: real time    0.0018
       DOS:  cpu time    0.0006: real time    0.0001
    CHARGE:  cpu time    0.6814: real time    0.0661
    MIXING:  cpu time    0.2016: real time    0.0190
    --------------------------------------------
      LOOP:  cpu time    8.1173: real time    1.1039

 eigenvalue-minimisations  :     9
 total energy-change (2. order) :-0.3130789E-05  (-0.5206598E-07)
 number of electron       2.0000004 magnetization 
 augmentation part        0.0402281 magnetization 

 eigenvalues of (default mixing * dielectric matrix)
  average eigenvalue GAMMA=   2.3857
  0.9965  2.6123  2.9671  2.9671

  free energy =  -0.675469768438E+01  energy without entropy=  -0.675469768438E+01


--------------------------------------------------------------------------------------------------------




--------------------------------------- Iteration      2(   6)  ---------------------------------------


    POTLOK:  cpu time    2.4192: real time    0.4464
    SETDIJ:  cpu time    0.0019: real time    0.0018
    EDDIAG:  cpu time    0.1143: real time    0.0281
  RMM-DIIS:  cpu time    3.1797: real time    0.2862
    ORTHCH:  cpu time    0.0129: real time    0.0008
       DOS:  cpu time    0.0009: real time    0.0001
    CHARGE:  cpu time    0.4100: real time    0.0340
    MIXING:  cpu time    0.2393: real time    0.0200
    --------------------------------------------
      LOOP:  cpu time    6.3784: real time    0.8173

 eigenvalue-minimisations  :     9
 total energy-change (2. order) :-0.3449542E-05  (-0.3824553E-07)
 number of electron       2.0000004 magnetization 
 augmentation part        0.0402287 magnetization 

 eigenvalues of (default mixing * dielectric matrix)
  average eigenvalue GAMMA=   2.0819
  3.4362  2.6679  2.4553  0.9990  0.8513

  free energy =  -0.675470113392E+01  energy without entropy=  -0.675470113392E+01


--------------------------------------------------------------------------------------------------------




--------------------------------------- Iteration      2(   7)  ---------------------------------------


    POTLOK:  cpu time    2.5262: real time    0.4492
    SETDIJ:  cpu time    0.0019: real time    0.0019
    EDDIAG:  cpu time    0.0520: real time    0.0248
  RMM-DIIS:  cpu time    6.0654: real time    0.5394
    ORTHCH:  cpu time    0.0868: real time    0.0088
       DOS:  cpu time    0.0011: real time    0.0001
    --------------------------------------------
      LOOP:  cpu time    8.7334: real time    1.0241

 eigenvalue-minimisations  :     8
 total energy-change (2. order) :-0.2822906E-06  ( 0.0000000E+00)
 number of electron       2.0000004 magnetization 
 augmentation part        0.0402287 magnetization 

  free energy =  -0.675470141621E+01  energy without entropy=  -0.675470141621E+01


--------------------------------------------------------------------------------------------------------




------------------------ aborting loop because EDIFF is reached ----------------------------------------


    CHARGE:  cpu time    0.8457: real time    0.0661
    FORLOC:  cpu time    0.6298: real time    0.0507
    FORNL :  cpu time    0.7516: real time    0.0606
    STRESS:  cpu time    2.3465: real time    0.2150
    FORHAR:  cpu time    0.1236: real time    0.1237
    MIXING:  cpu time    0.0207: real time    0.0207
    OFIELD:  cpu time    0.0000: real time    0.0000

  Number of pair interactions contributing to vdW energy:     433
  Edisp (eV):   -0.00005
    FORVDW:  cpu time    0.0001: real time    0.0001

  FORCE on cell =-STRESS in cart. coord.  units (eV):
  Direction    XX          YY          ZZ          XY          YZ          ZX
  --------------------------------------------------------------------------------------
  Alpha Z     0.01196     0.01196     0.01196
  Ewald      -2.50271    14.10627    -1.62051    -3.79266     2.84111    -0.61802
  Hartree     7.77152     9.79766     8.93575    -0.46278     0.34166    -0.07431
  E(xc)      -5.91198    -5.71494    -5.91622    -0.04499     0.03384    -0.00736
  Local     -14.73223   -26.80628   -16.92076     2.75737    -2.05605     0.44709
  n-local    -5.32310    -6.10895    -5.30673     0.17944    -0.13507     0.02918
  augment     0.26044     0.20530     0.26149     0.01251    -0.00957     0.00210
  Kinetic    20.28662    13.94213    20.42284     1.44878    -1.08968     0.23695
  Fock        0.00000     0.00000     0.00000     0.00000     0.00000     0.00000
  vdW        -0.00004    -0.00000    -0.00008    -0.00001     0.00001    -0.00000
  -------------------------------------------------------------------------------------
  Total      -0.13953    -0.56687    -0.13226     0.09766    -0.07375     0.01563
  in kB      -0.27430    -1.11439    -0.26000     0.19198    -0.14499     0.03072
  external pressure =       -0.55 kB  Pullay stress =        0.00 kB



--------------------------------------------------------------------------------------------------------



  FREE ENERGIE OF THE ION-ELECTRON SYSTEM (eV)
  ---------------------------------------------------
  free  energy   TOTEN  =        -6.75475281 eV

  energy  without entropy=       -6.75475281  energy(sigma->0) =       -6.75475281
 
 d Force =-0.2055209E-02[-0.242E-02,-0.169E-02]  d Energy =-0.2042455E-02-0.128E-04
 d Force = 0.9639826E-01[ 0.102E+00, 0.908E-01]  d Ewald  = 0.9644432E-01-0.461E-04


--------------------------------------------------------------------------------------------------------


    POTLOK:  cpu time    0.4199: real time    0.4202


--------------------------------------------------------------------------------------------------------


 stress matrix after NEB project (eV)
     -0.13953      0.09766      0.01563
      0.09766     -0.56687     -0.07375
      0.01563     -0.07375     -0.13226
  FORCES: max atom, RMS     0.582465    0.582465
  FORCE total and by dimension    0.823730    0.562320
  Stress total and by dimension    0.623493    0.566868
 Finite differences progress:
  Degree of freedom:   1/  6
  Displacement:        1/  2
  Total:               1/ 12
  LATTYP: Found a hexagonal cell.
 ALAT       =    10.5475997925
 C/A-ratio  =     0.8019833706
  
  Lattice vectors:
  
 A1 = (  10.5475997925,   0.0000000000,   0.0000000000)
 A2 = (  -5.2737998962,   9.1344893692,   0.0000000000)
 A3 = (   0.0000000000,   0.0000000000,   8.4589996338)


Analysis of symmetry for initial positions (statically):
=====================================================================
 Subroutine PRICEL returns:
 Original cell was already a primitive cell.
 

 Routine SETGRP: Setting up the symmetry group for a 
 hexagonal supercell.


 Subroutine GETGRP returns: Found  2 space group operations
 (whereof  1 operations were pure point group operations)
 out of a pool of 24 trial point group operations.


The static configuration has the point symmetry C_1 .
 The point group associated with its full space group is S_2 .


Analysis of symmetry for dynamics (positions and initial velocities):
=====================================================================
 Subroutine PRICEL returns:
 Original cell was already a primitive cell.
 

 Routine SETGRP: Setting up the symmetry group for a 
 hexagonal supercell.


 Subroutine GETGRP returns: Found  2 space group operations
 (whereof  1 operations were pure point group operations)
 out of a pool of 24 trial point group operations.


The dynamic configuration has the point symmetry C_1 .
 The point group associated with its full space group is S_2 .


Analysis of constrained symmetry for selective dynamics:
=====================================================================
 Subroutine PRICEL returns:
 Original cell was already a primitive cell.
 

 Routine SETGRP: Setting up the symmetry group for a 
 hexagonal supercell.


 Subroutine GETGRP returns: Found  2 space group operations
 (whereof  1 operations were pure point group operations)
 out of a pool of 24 trial point group operations.


The constrained configuration has the point symmetry C_1 .
 The point group associated with its full space group is S_2 .


 Subroutine INISYM returns: Found  2 space group operations
 (whereof  1 operations are pure point group operations),
 and found     1 'primitive' translations

 
 KPOINTS: K-POINTS                                

Automatic generation of k-mesh.
Space group operators:
 irot       det(A)        alpha          n_x          n_y          n_z        tau_x        tau_y        tau_z
    1     1.000000     0.000000     1.000000     0.000000     0.000000     0.000000     0.000000     0.000000
    2    -1.000000     0.000000     1.000000     0.000000     0.000000     0.783413     0.570388     0.865093
 
 Subroutine IBZKPT returns following result:
 ===========================================
 
 Found      1 irreducible k-points:
 
 Following reciprocal coordinates:
            Coordinates               Weight
  0.000000  0.000000  0.000000      1.000000
 
 Following cartesian coordinates:
            Coordinates               Weight
  0.000000  0.000000  0.000000      1.000000
 
    WAVPRE:  cpu time    0.0865: real time    0.0884
    FEWALD:  cpu time    0.0001: real time    0.0001
    ORTHCH:  cpu time    0.0884: real time    0.0178
     LOOP+:  cpu time   53.9830: real time    7.9825


--------------------------------------- Iteration      3(   1)  ---------------------------------------


    POTLOK:  cpu time    2.7771: real time    0.5540
    SETDIJ:  cpu time    0.0019: real time    0.0018
     EDDAV:  cpu time    1.5133: real time    0.1762
       DOS:  cpu time    0.0009: real time    0.0001
    CHARGE:  cpu time    0.2885: real time    0.0302
    MIXING:  cpu time    0.1413: real time    0.0148
    --------------------------------------------
      LOOP:  cpu time    4.7232: real time    0.7771

 eigenvalue-minimisations  :    10
 total energy-change (2. order) :-0.3525469E-02  (-0.5621054E-01)
 number of electron       2.0000002 magnetization 
 augmentation part        0.0406007 magnetization 

  free energy =  -0.675822660250E+01  energy without entropy=  -0.675822660250E+01


--------------------------------------------------------------------------------------------------------




--------------------------------------- Iteration      3(   2)  ---------------------------------------


    POTLOK:  cpu time    3.1723: real time    0.3870
    SETDIJ:  cpu time    0.0018: real time    0.0018
    EDDIAG:  cpu time    0.1749: real time    0.0334
  RMM-DIIS:  cpu time    2.4951: real time    0.2628
    ORTHCH:  cpu time    0.0131: real time    0.0012
       DOS:  cpu time    0.0005: real time    0.0000
    CHARGE:  cpu time    0.2810: real time    0.0296
    MIXING:  cpu time    0.1523: real time    0.0158
    --------------------------------------------
      LOOP:  cpu time    6.2910: real time    0.7316

 eigenvalue-minimisations  :    10
 total energy-change (2. order) : 0.6467410E-04  (-0.1776306E-03)
 number of electron       2.0000002 magnetization 
 augmentation part        0.0406280 magnetization 

 eigenvalues of (default mixing * dielectric matrix)
  average eigenvalue GAMMA=   2.6585
  2.6585

  free energy =  -0.675816192840E+01  energy without entropy=  -0.675816192840E+01


--------------------------------------------------------------------------------------------------------




--------------------------------------- Iteration      3(   3)  ---------------------------------------


    POTLOK:  cpu time    1.9602: real time    0.3832
    SETDIJ:  cpu time    0.0018: real time    0.0018
    EDDIAG:  cpu time    0.0904: real time    0.0261
  RMM-DIIS:  cpu time    1.4161: real time    0.1772
    ORTHCH:  cpu time    0.0102: real time    0.0013
       DOS:  cpu time    0.0004: real time    0.0000
    CHARGE:  cpu time    0.2366: real time    0.0296
    MIXING:  cpu time    0.1328: real time    0.0166
    --------------------------------------------
      LOOP:  cpu time    3.8483: real time    0.6359

 eigenvalue-minimisations  :    10
 total energy-change (2. order) : 0.7607204E-04  (-0.4427207E-04)
 number of electron       2.0000002 magnetization 
 augmentation part        0.0405948 magnetization 

 eigenvalues of (default mixing * dielectric matrix)
  average eigenvalue GAMMA=   1.6818
  0.7562  2.6073

  free energy =  -0.675808585636E+01  energy without entropy=  -0.675808585636E+01


--------------------------------------------------------------------------------------------------------




--------------------------------------- Iteration      3(   4)  ---------------------------------------


    POTLOK:  cpu time    2.8384: real time    0.3855
    SETDIJ:  cpu time    0.0018: real time    0.0018
    EDDIAG:  cpu time    0.0411: real time    0.0200
  RMM-DIIS:  cpu time    1.8426: real time    0.2093
    ORTHCH:  cpu time    0.0194: real time    0.0015
       DOS:  cpu time    0.0006: real time    0.0000
    CHARGE:  cpu time    0.6236: real time    0.0599
    MIXING:  cpu time    0.3385: real time    0.0329
    --------------------------------------------
      LOOP:  cpu time    5.7060: real time    0.7109

 eigenvalue-minimisations  :    10
 total energy-change (2. order) :-0.9760453E-05  (-0.1563514E-06)
 number of electron       2.0000002 magnetization 
 augmentation part        0.0405948 magnetization 

 eigenvalues of (default mixing * dielectric matrix)
  average eigenvalue GAMMA=   2.1880
  0.9949  2.9978  2.5712

  free energy =  -0.675809561681E+01  energy without entropy=  -0.675809561681E+01


--------------------------------------------------------------------------------------------------------




--------------------------------------- Iteration      3(   5)  ---------------------------------------


    POTLOK:  cpu time    2.8708: real time    0.5086
    SETDIJ:  cpu time    0.0018: real time    0.0018
    EDDIAG:  cpu time    0.1055: real time    0.0260
  RMM-DIIS:  cpu time    4.6403: real time    0.4882
    ORTHCH:  cpu time    0.0750: real time    0.0080
       DOS:  cpu time    0.0006: real time    0.0001
    CHARGE:  cpu time    0.4043: real time    0.0395
    MIXING:  cpu time    0.3871: real time    0.0386
    --------------------------------------------
      LOOP:  cpu time    8.4855: real time    1.1106

 eigenvalue-minimisations  :    10
 total energy-change (2. order) :-0.1449173E-04  (-0.5891009E-06)
 number of electron       2.0000002 magnetization 
 augmentation part        0.0406010 magnetization 

 eigenvalues of (default mixing * dielectric matrix)
  average eigenvalue GAMMA=   1.7457
  2.8306  2.5455  0.9508  0.6559

  free energy =  -0.675811010854E+01  energy without entropy=  -0.675811010854E+01


--------------------------------------------------------------------------------------------------------




--------------------------------------- Iteration      3(   6)  ---------------------------------------


    POTLOK:  cpu time    1.6066: real time    0.4568
    SETDIJ:  cpu time    0.0018: real time    0.0018
    EDDIAG:  cpu time    0.1056: real time    0.0260
  RMM-DIIS:  cpu time    2.4647: real time    0.2741
    ORTHCH:  cpu time    0.0138: real time    0.0015
       DOS:  cpu time    0.0004: real time    0.0000
    CHARGE:  cpu time    0.4539: real time    0.0512
    MIXING:  cpu time    0.3568: real time    0.0397
    --------------------------------------------
      LOOP:  cpu time    5.0036: real time    0.8511

 eigenvalue-minimisations  :     9
 total energy-change (2. order) :-0.2390782E-05  (-0.7697288E-08)
 number of electron       2.0000002 magnetization 
 augmentation part        0.0406008 magnetization 

 eigenvalues of (default mixing * dielectric matrix)
  average eigenvalue GAMMA=   2.1740
  3.5641  2.7405  2.5679  0.9988  0.9988

  free energy =  -0.675811249932E+01  energy without entropy=  -0.675811249932E+01


--------------------------------------------------------------------------------------------------------




--------------------------------------- Iteration      3(   7)  ---------------------------------------


    POTLOK:  cpu time    2.7509: real time    0.4539
    SETDIJ:  cpu time    0.0018: real time    0.0018
    EDDIAG:  cpu time    0.0865: real time    0.0258
  RMM-DIIS:  cpu time    6.3936: real time    0.5801
    ORTHCH:  cpu time    0.0133: real time    0.0009
       DOS:  cpu time    0.0007: real time    0.0000
    CHARGE:  cpu time    0.3473: real time    0.0301
    MIXING:  cpu time    0.2368: real time    0.0205
    --------------------------------------------
      LOOP:  cpu time    9.8311: real time    1.1132

 eigenvalue-minimisations  :    10
 total energy-change (2. order) :-0.1127813E-04  (-0.1668130E-06)
 number of electron       2.0000002 magnetization 
 augmentation part        0.0405981 magnetization 

 eigenvalues of (default mixing * dielectric matrix)
  average eigenvalue GAMMA=   1.8690
  3.5293  2.6819  2.4921  0.9620  0.9620  0.5869

  free energy =  -0.675812377745E+01  energy without entropy=  -0.675812377745E+01


--------------------------------------------------------------------------------------------------------




--------------------------------------- Iteration      3(   8)  ---------------------------------------


    POTLOK:  cpu time    2.1986: real time    0.4614
    SETDIJ:  cpu time    0.0018: real time    0.0018
    EDDIAG:  cpu time    0.0535: real time    0.0216
[...]


The constrained configuration has the point symmetry C_1 .
 The point group associated with its full space group is S_2 .


 Subroutine INISYM returns: Found  2 space group operations
 (whereof  1 operations are pure point group operations),
 and found     1 'primitive' translations

 
 KPOINTS: K-POINTS                                

Automatic generation of k-mesh.
Space group operators:
 irot       det(A)        alpha          n_x          n_y          n_z        tau_x        tau_y        tau_z
    1     1.000000     0.000000     1.000000     0.000000     0.000000     0.000000     0.000000     0.000000
    2    -1.000000     0.000000     1.000000     0.000000     0.000000     0.785310     0.570388     0.862728
 
 Subroutine IBZKPT returns following result:
 ===========================================
 
 Found      1 irreducible k-points:
 
 Following reciprocal coordinates:
            Coordinates               Weight
  0.000000  0.000000  0.000000      1.000000
 
 Following cartesian coordinates:
            Coordinates               Weight
  0.000000  0.000000  0.000000      1.000000
 
    WAVPRE:  cpu time    0.0874: real time    0.0894
    FEWALD:  cpu time    0.0001: real time    0.0001
    ORTHCH:  cpu time    0.0221: real time    0.0108
     LOOP+:  cpu time   42.1322: real time    6.7784


--------------------------------------- Iteration     13(   1)  ---------------------------------------


    POTLOK:  cpu time    2.8860: real time    0.5835
    SETDIJ:  cpu time    0.0020: real time    0.0020
     EDDAV:  cpu time    2.1261: real time    0.2664
       DOS:  cpu time    0.0007: real time    0.0001
    CHARGE:  cpu time    0.8460: real time    0.1058
    MIXING:  cpu time    0.3159: real time    0.0395
    --------------------------------------------
      LOOP:  cpu time    6.1770: real time    0.9973

 eigenvalue-minimisations  :    10
 total energy-change (2. order) :-0.3030415E-02  (-0.5609513E-01)
 number of electron       1.9999999 magnetization 
 augmentation part        0.0405717 magnetization 

  free energy =  -0.675801506438E+01  energy without entropy=  -0.675801506438E+01


--------------------------------------------------------------------------------------------------------




--------------------------------------- Iteration     13(   2)  ---------------------------------------


    POTLOK:  cpu time    1.4390: real time    0.5142
    SETDIJ:  cpu time    0.0018: real time    0.0018
    EDDIAG:  cpu time    0.0409: real time    0.0210
  RMM-DIIS:  cpu time    1.3382: real time    0.1675
    ORTHCH:  cpu time    0.0088: real time    0.0011
       DOS:  cpu time    0.0004: real time    0.0001
    CHARGE:  cpu time    0.2701: real time    0.0338
    MIXING:  cpu time    0.1303: real time    0.0163
    --------------------------------------------
      LOOP:  cpu time    3.2297: real time    0.7557

 eigenvalue-minimisations  :    10
 total energy-change (2. order) : 0.6759534E-04  (-0.1787743E-03)
 number of electron       1.9999999 magnetization 
 augmentation part        0.0405971 magnetization 

 eigenvalues of (default mixing * dielectric matrix)
  average eigenvalue GAMMA=   2.6495
  2.6495

  free energy =  -0.675794746904E+01  energy without entropy=  -0.675794746904E+01


--------------------------------------------------------------------------------------------------------




--------------------------------------- Iteration     13(   3)  ---------------------------------------


    POTLOK:  cpu time    1.6735: real time    0.4370
    SETDIJ:  cpu time    0.0018: real time    0.0018
    EDDIAG:  cpu time    0.0406: real time    0.0209
  RMM-DIIS:  cpu time    1.3189: real time    0.1650
    ORTHCH:  cpu time    0.0088: real time    0.0011
       DOS:  cpu time    0.0004: real time    0.0000
    CHARGE:  cpu time    0.2696: real time    0.0337
    MIXING:  cpu time    0.1364: real time    0.0171
    --------------------------------------------
      LOOP:  cpu time    3.4500: real time    0.6767

 eigenvalue-minimisations  :    10
 total energy-change (2. order) : 0.4360651E-04  (-0.4024697E-04)
 number of electron       1.9999999 magnetization 
 augmentation part        0.0405686 magnetization 

 eigenvalues of (default mixing * dielectric matrix)
  average eigenvalue GAMMA=   1.6988
  0.7895  2.6080

  free energy =  -0.675790386253E+01  energy without entropy=  -0.675790386253E+01


--------------------------------------------------------------------------------------------------------




--------------------------------------- Iteration     13(   4)  ---------------------------------------


    POTLOK:  cpu time    2.5481: real time    0.4469
    SETDIJ:  cpu time    0.0018: real time    0.0018
    EDDIAG:  cpu time    0.0937: real time    0.0266
  RMM-DIIS:  cpu time    1.8049: real time    0.2259
    ORTHCH:  cpu time    0.0128: real time    0.0016
       DOS:  cpu time    0.0019: real time    0.0001
    CHARGE:  cpu time    0.4648: real time    0.0583
    MIXING:  cpu time    0.2416: real time    0.0302
    --------------------------------------------
      LOOP:  cpu time    5.1695: real time    0.7914

 eigenvalue-minimisations  :    10
 total energy-change (2. order) :-0.9362072E-05  (-0.1432489E-06)
 number of electron       1.9999999 magnetization 
 augmentation part        0.0405685 magnetization 

 eigenvalues of (default mixing * dielectric matrix)
  average eigenvalue GAMMA=   2.1857
  0.9942  2.9920  2.5709

  free energy =  -0.675791322460E+01  energy without entropy=  -0.675791322460E+01


--------------------------------------------------------------------------------------------------------




--------------------------------------- Iteration     13(   5)  ---------------------------------------


    POTLOK:  cpu time    2.7252: real time    0.5632
    SETDIJ:  cpu time    0.0018: real time    0.0018
    EDDIAG:  cpu time    0.0382: real time    0.0195
  RMM-DIIS:  cpu time    1.3283: real time    0.1662
    ORTHCH:  cpu time    0.0101: real time    0.0013
       DOS:  cpu time    0.0004: real time    0.0000
    CHARGE:  cpu time    0.2338: real time    0.0293
    MIXING:  cpu time    0.1469: real time    0.0184
    --------------------------------------------
      LOOP:  cpu time    4.4846: real time    0.7997

 eigenvalue-minimisations  :    10
 total energy-change (2. order) :-0.1590704E-04  (-0.5126321E-06)
 number of electron       1.9999999 magnetization 
 augmentation part        0.0405738 magnetization 

 eigenvalues of (default mixing * dielectric matrix)
  average eigenvalue GAMMA=   1.7491
  2.8331  2.5470  0.9510  0.6654

  free energy =  -0.675792913165E+01  energy without entropy=  -0.675792913165E+01


--------------------------------------------------------------------------------------------------------




--------------------------------------- Iteration     13(   6)  ---------------------------------------


    POTLOK:  cpu time    2.8348: real time    0.4406
    SETDIJ:  cpu time    0.0018: real time    0.0018
    EDDIAG:  cpu time    0.0976: real time    0.0259
  RMM-DIIS:  cpu time    2.2908: real time    0.2697
    ORTHCH:  cpu time    0.0251: real time    0.0031
       DOS:  cpu time    0.0004: real time    0.0000
    CHARGE:  cpu time    0.4954: real time    0.0583
    MIXING:  cpu time    0.3351: real time    0.0394
    --------------------------------------------
      LOOP:  cpu time    6.0810: real time    0.8389

 eigenvalue-minimisations  :     9
 total energy-change (2. order) :-0.2152254E-05  (-0.5984006E-08)
 number of electron       1.9999999 magnetization 
 augmentation part        0.0405736 magnetization 

 eigenvalues of (default mixing * dielectric matrix)
  average eigenvalue GAMMA=   2.1842
  3.6001  2.7618  2.5702  0.9944  0.9944

  free energy =  -0.675793128390E+01  energy without entropy=  -0.675793128390E+01


--------------------------------------------------------------------------------------------------------




--------------------------------------- Iteration     13(   7)  ---------------------------------------


    POTLOK:  cpu time    2.5631: real time    0.5347
    SETDIJ:  cpu time    0.0018: real time    0.0018
    EDDIAG:  cpu time    0.0341: real time    0.0191
  RMM-DIIS:  cpu time    3.6898: real time    0.3810
    ORTHCH:  cpu time    0.0549: real time    0.0057
       DOS:  cpu time    0.0006: real time    0.0000
    CHARGE:  cpu time    0.2932: real time    0.0300
    MIXING:  cpu time    0.2043: real time    0.0204
    --------------------------------------------
      LOOP:  cpu time    6.8419: real time    0.9928

 eigenvalue-minimisations  :    10
 total energy-change (2. order) :-0.9412845E-05  (-0.1346599E-06)
 number of electron       1.9999999 magnetization 
 augmentation part        0.0405715 magnetization 

 eigenvalues of (default mixing * dielectric matrix)
  average eigenvalue GAMMA=   1.8670
  3.5576  2.6997  2.5179  0.9690  0.9690  0.4888

  free energy =  -0.675794069675E+01  energy without entropy=  -0.675794069675E+01


--------------------------------------------------------------------------------------------------------




--------------------------------------- Iteration     13(   8)  ---------------------------------------


    POTLOK:  cpu time    2.9144: real time    0.4050
    SETDIJ:  cpu time    0.0018: real time    0.0018
    EDDIAG:  cpu time    0.0527: real time    0.0202
  RMM-DIIS:  cpu time    5.5782: real time    0.4742
    ORTHCH:  cpu time    0.1000: real time    0.0082
       DOS:  cpu time    0.0008: real time    0.0001
    --------------------------------------------
      LOOP:  cpu time    8.6478: real time    0.9095

 eigenvalue-minimisations  :     8
 total energy-change (2. order) :-0.5386537E-06  ( 0.0000000E+00)
 number of electron       1.9999999 magnetization 
 augmentation part        0.0405715 magnetization 

  free energy =  -0.675794123540E+01  energy without entropy=  -0.675794123540E+01


--------------------------------------------------------------------------------------------------------




------------------------ aborting loop because EDIFF is reached ----------------------------------------


    CHARGE:  cpu time    0.3855: real time    0.0298
    FORLOC:  cpu time    0.3110: real time    0.0231
    FORNL :  cpu time    0.3321: real time    0.0265
    STRESS:  cpu time    1.3617: real time    0.1050
    FORHAR:  cpu time    1.4414: real time    0.1108
    MIXING:  cpu time    0.2745: real time    0.0217
    OFIELD:  cpu time    0.0007: real time    0.0000

  Number of pair interactions contributing to vdW energy:     433
  Edisp (eV):   -0.00005
    FORVDW:  cpu time    0.0013: real time    0.0001

  FORCE on cell =-STRESS in cart. coord.  units (eV):
  Direction    XX          YY          ZZ          XY          YZ          ZX
  --------------------------------------------------------------------------------------
  Alpha Z     0.01196     0.01196     0.01196
  Ewald      -2.67734    14.58147    -1.75282    -3.41334     2.43809    -0.46464
  Hartree     7.79575     9.86492     8.96608    -0.40931     0.28818    -0.05491
  E(xc)      -5.93257    -5.73018    -5.93626    -0.04002     0.02871    -0.00547
  Local     -14.68351   -27.09394   -16.90557     2.45467    -1.74534     0.33249
  n-local    -5.35504    -6.18424    -5.34030     0.16401    -0.11770     0.02226
  augment     0.26353     0.20420     0.26464     0.01166    -0.00850     0.00167
  Kinetic    20.44676    13.92716    20.56552     1.28936    -0.92464     0.17613
  Fock        0.00000     0.00000     0.00000     0.00000     0.00000     0.00000
  vdW        -0.00004    -0.00001    -0.00008    -0.00001     0.00001    -0.00000
  -------------------------------------------------------------------------------------
  Total      -0.13050    -0.41866    -0.12683     0.05703    -0.04120     0.00754
  in kB      -0.25654    -0.82303    -0.24932     0.11212    -0.08098     0.01482
  external pressure =       -0.44 kB  Pullay stress =        0.00 kB



--------------------------------------------------------------------------------------------------------



  FREE ENERGIE OF THE ION-ELECTRON SYSTEM (eV)
  ---------------------------------------------------
  free  energy   TOTEN  =        -6.75799228 eV

  energy  without entropy=       -6.75799228  energy(sigma->0) =       -6.75799228
 
 d Force = 0.3050249E-02[ 0.194E-02, 0.416E-02]  d Energy = 0.2955515E-02 0.947E-04
 d Force =-0.1551646E+00[-0.131E+00,-0.179E+00]  d Ewald  =-0.1554708E+00 0.306E-03


--------------------------------------------------------------------------------------------------------


    POTLOK:  cpu time    0.9912: real time    0.4091


--------------------------------------------------------------------------------------------------------


 stress matrix after NEB project (eV)
     -0.13050      0.05703      0.00754
      0.05703     -0.41866     -0.04120
      0.00754     -0.04120     -0.12683
  FORCES: max atom, RMS     0.369964    0.369964
  FORCE total and by dimension    0.523209    0.360472
  Stress total and by dimension    0.467336    0.418658
 Finite differences progress:
  Degree of freedom:   6/  6
  Displacement:        2/  2
  Total:              12/ 12
 
 SECOND DERIVATIVES (NOT SYMMETRIZED)
 ------------------------------------
               1X          1Y          1Z          2X          2Y          2Z 
  1X    -1.641658    5.430796    0.892869    1.641658   -5.430796   -0.892869
  1Y     5.469916  -29.272761   -4.702505   -5.469916   29.272761    4.702505
  1Z     0.892404   -4.663376   -1.368591   -0.892404    4.663376    1.368591
  2X     1.641122   -5.418063   -0.890174   -1.641122    5.418063    0.890174
  2Y    -5.475417   29.283371    4.701682    5.475417  -29.283371   -4.701682
  2Z    -0.893956    4.672735    1.382496    0.893956   -4.672735   -1.382496
 
 
 Eigenvectors and eigenvalues of the dynamical matrix
 ----------------------------------------------------
 
 
   1 f  =  123.253937 THz   774.427325 2PiTHz 4111.308668 cm-1   509.737492 meV
             X         Y         Z           dx          dy          dz
      0.071318  6.801319  7.827700    -0.130420    0.685825    0.112033  
     -0.070099  7.543373  7.949117     0.130274   -0.685952   -0.112165  
 
   2 f  =   17.276573 THz   108.551911 2PiTHz  576.284432 cm-1    71.450189 meV
             X         Y         Z           dx          dy          dz
      0.071318  6.801319  7.827700     0.254180    0.152894   -0.638561  
     -0.070099  7.543373  7.949117    -0.254249   -0.153512    0.645017  
 
   3 f  =   17.198839 THz   108.063495 2PiTHz  573.691510 cm-1    71.128708 meV
             X         Y         Z           dx          dy          dz
      0.071318  6.801319  7.827700     0.646252    0.079229    0.273357  
     -0.070099  7.543373  7.949117    -0.647399   -0.076786   -0.276288  
 
   4 f/i=    0.016367 THz     0.102837 2PiTHz    0.545943 cm-1     0.067688 meV
             X         Y         Z           dx          dy          dz
      0.071318  6.801319  7.827700     0.676061    0.207777   -0.009918  
     -0.070099  7.543373  7.949117     0.675663    0.207496   -0.009771  
 
   5 f/i=    0.027642 THz     0.173680 2PiTHz    0.922038 cm-1     0.114318 meV
             X         Y         Z           dx          dy          dz
      0.071318  6.801319  7.827700     0.200911   -0.658126   -0.163533  
     -0.070099  7.543373  7.949117     0.198797   -0.658436   -0.163413  
 
   6 f/i=    0.089509 THz     0.562401 2PiTHz    2.985697 cm-1     0.370179 meV
             X         Y         Z           dx          dy          dz
      0.071318  6.801319  7.827700    -0.057593    0.153913   -0.691464  
     -0.070099  7.543373  7.949117    -0.056740    0.153017   -0.684279  
 
 Finite differences POTIM=  2.000000000000000E-002
  LATTYP: Found a hexagonal cell.
 ALAT       =    10.5475997925
 C/A-ratio  =     0.8019833706
  
  Lattice vectors:
  
 A1 = (  10.5475997925,   0.0000000000,   0.0000000000)
 A2 = (  -5.2737998962,   9.1344893692,   0.0000000000)
 A3 = (   0.0000000000,   0.0000000000,   8.4589996338)


Analysis of symmetry for initial positions (statically):
=====================================================================
 Subroutine PRICEL returns:
 Original cell was already a primitive cell.
 

 Routine SETGRP: Setting up the symmetry group for a 
 hexagonal supercell.


 Subroutine GETGRP returns: Found  2 space group operations
 (whereof  1 operations were pure point group operations)
 out of a pool of 24 trial point group operations.


The static configuration has the point symmetry C_1 .
 The point group associated with its full space group is S_2 .


Analysis of symmetry for dynamics (positions and initial velocities):
=====================================================================
 Subroutine PRICEL returns:
 Original cell was already a primitive cell.
 

 Routine SETGRP: Setting up the symmetry group for a 
 hexagonal supercell.


 Subroutine GETGRP returns: Found  2 space group operations
 (whereof  1 operations were pure point group operations)
 out of a pool of 24 trial point group operations.


The dynamic configuration has the point symmetry C_1 .
 The point group associated with its full space group is S_2 .


Analysis of constrained symmetry for selective dynamics:
=====================================================================
 Subroutine PRICEL returns:
 Original cell was already a primitive cell.
 

 Routine SETGRP: Setting up the symmetry group for a 
 hexagonal supercell.


 Subroutine GETGRP returns: Found  2 space group operations
 (whereof  1 operations were pure point group operations)
 out of a pool of 24 trial point group operations.


The constrained configuration has the point symmetry C_1 .
 The point group associated with its full space group is S_2 .


 Subroutine INISYM returns: Found  2 space group operations
 (whereof  1 operations are pure point group operations),
 and found     1 'primitive' translations

 
 KPOINTS: K-POINTS                                

Automatic generation of k-mesh.
Space group operators:
 irot       det(A)        alpha          n_x          n_y          n_z        tau_x        tau_y        tau_z
    1     1.000000     0.000000     1.000000     0.000000     0.000000     0.000000     0.000000     0.000000
    2    -1.000000     0.000000     1.000000     0.000000     0.000000     0.785310     0.570388     0.865093
 
 Subroutine IBZKPT returns following result:
 ===========================================
 
 Found      1 irreducible k-points:
 
 Following reciprocal coordinates:
            Coordinates               Weight
  0.000000  0.000000  0.000000      1.000000
 
 Following cartesian coordinates:
            Coordinates               Weight
  0.000000  0.000000  0.000000      1.000000
 
     LOOP+:  cpu time   49.2662: real time    7.5192
    4ORBIT:  cpu time    0.0000: real time    0.0000

 total amount of memory used by VASP MPI-rank0   118207. kBytes
=======================================================================

   base      :      30000. kBytes
   nonlr-proj:        151. kBytes
   fftplans  :      34148. kBytes
   grid      :      52721. kBytes
   one-center:          2. kBytes
   wavefun   :       1185. kBytes
 
  
  
 General timing and accounting informations for this job:
 ========================================================
  
                  Total CPU time used (sec):      788.565
                            User time (sec):      779.178
                          System time (sec):        9.388
                         Elapsed time (sec):      122.201
  
                   Maximum memory used (kb):      318972.
                   Average memory used (kb):           0.
  
                          Minor page faults:       584376
                          Major page faults:            0
                 Voluntary context switches:         5935
