Pt(111)                                 
           1
    10.547600    0.000000    0.000000
    -5.273800    9.134489    0.000000
     0.000000    0.000000    8.459000
   H 
   2
Direct configuration=     1
   0.37904942  0.74457577  0.92536945
   0.40626012  0.82581219  0.93972309
Direct configuration=     2
   0.38094558  0.74457577  0.92536945
   0.40626012  0.82581219  0.93972309
Direct configuration=     3
   0.37715325  0.74457577  0.92536945
   0.40626012  0.82581219  0.93972309
Direct configuration=     4
   0.38014417  0.74676528  0.92536945
   0.40626012  0.82581219  0.93972309
Direct configuration=     5
   0.37795467  0.74238627  0.92536945
   0.40626012  0.82581219  0.93972309
Direct configuration=     6
   0.37904942  0.74457577  0.92773380
   0.40626012  0.82581219  0.93972309
Direct configuration=     7
   0.37904942  0.74457577  0.92300510
   0.40626012  0.82581219  0.93972309
Direct configuration=     8
   0.37904942  0.74457577  0.92536945
   0.40815629  0.82581219  0.93972309
Direct configuration=     9
   0.37904942  0.74457577  0.92536945
   0.40436396  0.82581219  0.93972309
Direct configuration=    10
   0.37904942  0.74457577  0.92536945
   0.40735487  0.82800170  0.93972309
Direct configuration=    11
   0.37904942  0.74457577  0.92536945
   0.40516537  0.82362269  0.93972309
Direct configuration=    12
   0.37904942  0.74457577  0.92536945
   0.40626012  0.82581219  0.94208743
Direct configuration=    13
   0.37904942  0.74457577  0.92536945
   0.40626012  0.82581219  0.93735874
