   2   2   0   0
  0.4074994E+03  0.1054760E-08  0.1054760E-08  0.8459000E-09  0.2000000E-16
  1.000000000000000E-004
  CAR 
 Pt(111)                                 
      2.25080232    -10.93116342  301    -10.26108016      1.00000000
    -10.931  0.0000E+00  0.0000E+00
    -10.887  0.0000E+00  0.0000E+00
    -10.843  0.0000E+00  0.0000E+00
    -10.799  0.0000E+00  0.0000E+00
    -10.755  0.0000E+00  0.0000E+00
    -10.711  0.0000E+00  0.0000E+00
    -10.668  0.0000E+00  0.0000E+00
    -10.624  0.0000E+00  0.0000E+00
    -10.580  0.0000E+00  0.0000E+00
    -10.536  0.0000E+00  0.0000E+00
    -10.492  0.0000E+00  0.0000E+00
    -10.448  0.0000E+00  0.0000E+00
    -10.404  0.0000E+00  0.0000E+00
    -10.360  0.2863E-04  0.1258E-05
    -10.316  0.7373E+00  0.3240E-01
    -10.272  0.8896E-02  0.3279E-01
    -10.228  0.0000E+00  0.3279E-01
    -10.184  0.0000E+00  0.3279E-01
    -10.140  0.0000E+00  0.3279E-01
    -10.096  0.0000E+00  0.3279E-01
    -10.052  0.0000E+00  0.3279E-01
    -10.008  0.0000E+00  0.3279E-01
     -9.964  0.0000E+00  0.3279E-01
     -9.921  0.0000E+00  0.3279E-01
     -9.877  0.0000E+00  0.3279E-01
     -9.833  0.0000E+00  0.3279E-01
     -9.789  0.0000E+00  0.3279E-01
     -9.745  0.0000E+00  0.3279E-01
     -9.701  0.0000E+00  0.3279E-01
     -9.657  0.0000E+00  0.3279E-01
     -9.613  0.0000E+00  0.3279E-01
     -9.569  0.0000E+00  0.3279E-01
     -9.525  0.0000E+00  0.3279E-01
     -9.481  0.0000E+00  0.3279E-01
     -9.437  0.0000E+00  0.3279E-01
     -9.393  0.0000E+00  0.3279E-01
     -9.349  0.0000E+00  0.3279E-01
     -9.305  0.0000E+00  0.3279E-01
     -9.261  0.0000E+00  0.3279E-01
     -9.218  0.0000E+00  0.3279E-01
     -9.174  0.0000E+00  0.3279E-01
     -9.130  0.0000E+00  0.3279E-01
     -9.086  0.0000E+00  0.3279E-01
     -9.042  0.0000E+00  0.3279E-01
     -8.998  0.0000E+00  0.3279E-01
     -8.954  0.0000E+00  0.3279E-01
     -8.910  0.0000E+00  0.3279E-01
     -8.866  0.0000E+00  0.3279E-01
     -8.822  0.0000E+00  0.3279E-01
     -8.778  0.0000E+00  0.3279E-01
     -8.734  0.0000E+00  0.3279E-01
     -8.690  0.0000E+00  0.3279E-01
     -8.646  0.0000E+00  0.3279E-01
     -8.602  0.0000E+00  0.3279E-01
     -8.558  0.0000E+00  0.3279E-01
     -8.514  0.0000E+00  0.3279E-01
     -8.471  0.0000E+00  0.3279E-01
     -8.427  0.0000E+00  0.3279E-01
     -8.383  0.0000E+00  0.3279E-01
     -8.339  0.0000E+00  0.3279E-01
     -8.295  0.0000E+00  0.3279E-01
     -8.251  0.0000E+00  0.3279E-01
     -8.207  0.0000E+00  0.3279E-01
     -8.163  0.0000E+00  0.3279E-01
     -8.119  0.0000E+00  0.3279E-01
     -8.075  0.0000E+00  0.3279E-01
     -8.031  0.0000E+00  0.3279E-01
     -7.987  0.0000E+00  0.3279E-01
     -7.943  0.0000E+00  0.3279E-01
     -7.899  0.0000E+00  0.3279E-01
     -7.855  0.0000E+00  0.3279E-01
     -7.811  0.0000E+00  0.3279E-01
     -7.767  0.0000E+00  0.3279E-01
     -7.724  0.0000E+00  0.3279E-01
     -7.680  0.0000E+00  0.3279E-01
     -7.636  0.0000E+00  0.3279E-01
     -7.592  0.0000E+00  0.3279E-01
     -7.548  0.0000E+00  0.3279E-01
     -7.504  0.0000E+00  0.3279E-01
     -7.460  0.0000E+00  0.3279E-01
     -7.416  0.0000E+00  0.3279E-01
     -7.372  0.0000E+00  0.3279E-01
     -7.328  0.0000E+00  0.3279E-01
     -7.284  0.0000E+00  0.3279E-01
     -7.240  0.0000E+00  0.3279E-01
     -7.196  0.0000E+00  0.3279E-01
     -7.152  0.0000E+00  0.3279E-01
     -7.108  0.0000E+00  0.3279E-01
     -7.064  0.0000E+00  0.3279E-01
     -7.021  0.0000E+00  0.3279E-01
     -6.977  0.0000E+00  0.3279E-01
     -6.933  0.0000E+00  0.3279E-01
     -6.889  0.0000E+00  0.3279E-01
     -6.845  0.0000E+00  0.3279E-01
     -6.801  0.0000E+00  0.3279E-01
     -6.757  0.0000E+00  0.3279E-01
     -6.713  0.0000E+00  0.3279E-01
     -6.669  0.0000E+00  0.3279E-01
     -6.625  0.0000E+00  0.3279E-01
     -6.581  0.0000E+00  0.3279E-01
     -6.537  0.0000E+00  0.3279E-01
     -6.493  0.0000E+00  0.3279E-01
     -6.449  0.0000E+00  0.3279E-01
     -6.405  0.0000E+00  0.3279E-01
     -6.361  0.0000E+00  0.3279E-01
     -6.317  0.0000E+00  0.3279E-01
     -6.274  0.0000E+00  0.3279E-01
     -6.230  0.0000E+00  0.3279E-01
     -6.186  0.0000E+00  0.3279E-01
     -6.142  0.0000E+00  0.3279E-01
     -6.098  0.0000E+00  0.3279E-01
     -6.054  0.0000E+00  0.3279E-01
     -6.010  0.0000E+00  0.3279E-01
     -5.966  0.0000E+00  0.3279E-01
     -5.922  0.0000E+00  0.3279E-01
     -5.878  0.0000E+00  0.3279E-01
     -5.834  0.0000E+00  0.3279E-01
     -5.790  0.0000E+00  0.3279E-01
     -5.746  0.0000E+00  0.3279E-01
     -5.702  0.0000E+00  0.3279E-01
     -5.658  0.0000E+00  0.3279E-01
     -5.614  0.0000E+00  0.3279E-01
     -5.570  0.0000E+00  0.3279E-01
     -5.527  0.0000E+00  0.3279E-01
     -5.483  0.0000E+00  0.3279E-01
     -5.439  0.0000E+00  0.3279E-01
     -5.395  0.0000E+00  0.3279E-01
     -5.351  0.0000E+00  0.3279E-01
     -5.307  0.0000E+00  0.3279E-01
     -5.263  0.0000E+00  0.3279E-01
     -5.219  0.0000E+00  0.3279E-01
     -5.175  0.0000E+00  0.3279E-01
     -5.131  0.0000E+00  0.3279E-01
     -5.087  0.0000E+00  0.3279E-01
     -5.043  0.0000E+00  0.3279E-01
     -4.999  0.0000E+00  0.3279E-01
     -4.955  0.0000E+00  0.3279E-01
     -4.911  0.0000E+00  0.3279E-01
     -4.867  0.0000E+00  0.3279E-01
     -4.824  0.0000E+00  0.3279E-01
     -4.780  0.0000E+00  0.3279E-01
     -4.736  0.0000E+00  0.3279E-01
     -4.692  0.0000E+00  0.3279E-01
     -4.648  0.0000E+00  0.3279E-01
     -4.604  0.0000E+00  0.3279E-01
     -4.560  0.0000E+00  0.3279E-01
     -4.516  0.0000E+00  0.3279E-01
     -4.472  0.0000E+00  0.3279E-01
     -4.428  0.0000E+00  0.3279E-01
     -4.384  0.0000E+00  0.3279E-01
     -4.340  0.0000E+00  0.3279E-01
     -4.296  0.0000E+00  0.3279E-01
     -4.252  0.0000E+00  0.3279E-01
     -4.208  0.0000E+00  0.3279E-01
     -4.164  0.0000E+00  0.3279E-01
     -4.120  0.0000E+00  0.3279E-01
     -4.077  0.0000E+00  0.3279E-01
     -4.033  0.0000E+00  0.3279E-01
     -3.989  0.0000E+00  0.3279E-01
     -3.945  0.0000E+00  0.3279E-01
     -3.901  0.0000E+00  0.3279E-01
     -3.857  0.0000E+00  0.3279E-01
     -3.813  0.0000E+00  0.3279E-01
     -3.769  0.0000E+00  0.3279E-01
     -3.725  0.0000E+00  0.3279E-01
     -3.681  0.0000E+00  0.3279E-01
     -3.637  0.0000E+00  0.3279E-01
     -3.593  0.0000E+00  0.3279E-01
     -3.549  0.0000E+00  0.3279E-01
     -3.505  0.0000E+00  0.3279E-01
     -3.461  0.0000E+00  0.3279E-01
     -3.417  0.0000E+00  0.3279E-01
     -3.374  0.0000E+00  0.3279E-01
     -3.330  0.0000E+00  0.3279E-01
     -3.286  0.0000E+00  0.3279E-01
     -3.242  0.0000E+00  0.3279E-01
     -3.198  0.0000E+00  0.3279E-01
     -3.154  0.0000E+00  0.3279E-01
     -3.110  0.0000E+00  0.3279E-01
     -3.066  0.0000E+00  0.3279E-01
     -3.022  0.0000E+00  0.3279E-01
     -2.978  0.0000E+00  0.3279E-01
     -2.934  0.0000E+00  0.3279E-01
     -2.890  0.0000E+00  0.3279E-01
     -2.846  0.0000E+00  0.3279E-01
     -2.802  0.0000E+00  0.3279E-01
     -2.758  0.0000E+00  0.3279E-01
     -2.714  0.0000E+00  0.3279E-01
     -2.670  0.0000E+00  0.3279E-01
     -2.627  0.0000E+00  0.3279E-01
     -2.583  0.0000E+00  0.3279E-01
     -2.539  0.0000E+00  0.3279E-01
     -2.495  0.0000E+00  0.3279E-01
     -2.451  0.0000E+00  0.3279E-01
     -2.407  0.0000E+00  0.3279E-01
     -2.363  0.0000E+00  0.3279E-01
     -2.319  0.0000E+00  0.3279E-01
     -2.275  0.0000E+00  0.3279E-01
     -2.231  0.0000E+00  0.3279E-01
     -2.187  0.0000E+00  0.3279E-01
     -2.143  0.0000E+00  0.3279E-01
     -2.099  0.0000E+00  0.3279E-01
     -2.055  0.0000E+00  0.3279E-01
     -2.011  0.0000E+00  0.3279E-01
     -1.967  0.0000E+00  0.3279E-01
     -1.923  0.0000E+00  0.3279E-01
     -1.880  0.0000E+00  0.3279E-01
     -1.836  0.0000E+00  0.3279E-01
     -1.792  0.0000E+00  0.3279E-01
     -1.748  0.0000E+00  0.3279E-01
     -1.704  0.0000E+00  0.3279E-01
     -1.660  0.0000E+00  0.3279E-01
     -1.616  0.0000E+00  0.3279E-01
     -1.572  0.0000E+00  0.3279E-01
     -1.528  0.0000E+00  0.3279E-01
     -1.484  0.0000E+00  0.3279E-01
     -1.440  0.0000E+00  0.3279E-01
     -1.396  0.0000E+00  0.3279E-01
     -1.352  0.0000E+00  0.3279E-01
     -1.308  0.0000E+00  0.3279E-01
     -1.264  0.0000E+00  0.3279E-01
     -1.220  0.0000E+00  0.3279E-01
     -1.177  0.0000E+00  0.3279E-01
     -1.133  0.0000E+00  0.3279E-01
     -1.089  0.0000E+00  0.3279E-01
     -1.045  0.0000E+00  0.3279E-01
     -1.001  0.0000E+00  0.3279E-01
     -0.957  0.0000E+00  0.3279E-01
     -0.913  0.0000E+00  0.3279E-01
     -0.869  0.0000E+00  0.3279E-01
     -0.825  0.0000E+00  0.3279E-01
     -0.781  0.0000E+00  0.3279E-01
     -0.737  0.0000E+00  0.3279E-01
     -0.693  0.0000E+00  0.3279E-01
     -0.649  0.0000E+00  0.3279E-01
     -0.605  0.0000E+00  0.3279E-01
     -0.561  0.0000E+00  0.3279E-01
     -0.517  0.0000E+00  0.3279E-01
     -0.473  0.0000E+00  0.3279E-01
     -0.430  0.0000E+00  0.3279E-01
     -0.386  0.0000E+00  0.3279E-01
     -0.342  0.0000E+00  0.3279E-01
     -0.298  0.0000E+00  0.3279E-01
     -0.254  0.0000E+00  0.3279E-01
     -0.210  0.2054E-02  0.3288E-01
     -0.166  0.7439E+00  0.6556E-01
     -0.122  0.2185E-03  0.6557E-01
     -0.078  0.0000E+00  0.6557E-01
     -0.034  0.0000E+00  0.6557E-01
      0.010  0.0000E+00  0.6557E-01
      0.054  0.0000E+00  0.6557E-01
      0.098  0.0000E+00  0.6557E-01
      0.142  0.0000E+00  0.6557E-01
      0.186  0.0000E+00  0.6557E-01
      0.230  0.0000E+00  0.6557E-01
      0.274  0.0000E+00  0.6557E-01
      0.317  0.0000E+00  0.6557E-01
      0.361  0.1810E-10  0.6557E-01
      0.405  0.2678E+00  0.7734E-01
      0.449  0.4784E+00  0.9836E-01
      0.493  0.0000E+00  0.9836E-01
      0.537  0.0000E+00  0.9836E-01
      0.581  0.0000E+00  0.9836E-01
      0.625  0.0000E+00  0.9836E-01
      0.669  0.0000E+00  0.9836E-01
      0.713  0.0000E+00  0.9836E-01
      0.757  0.0000E+00  0.9836E-01
      0.801  0.0000E+00  0.9836E-01
      0.845  0.0000E+00  0.9836E-01
      0.889  0.0000E+00  0.9836E-01
      0.933  0.0000E+00  0.9836E-01
      0.977  0.1586E-08  0.9836E-01
      1.020  0.4724E+00  0.1191E+00
      1.064  0.2738E+00  0.1311E+00
      1.108  0.0000E+00  0.1311E+00
      1.152  0.0000E+00  0.1311E+00
      1.196  0.0000E+00  0.1311E+00
      1.240  0.0000E+00  0.1311E+00
      1.284  0.1405E-09  0.1311E+00
      1.328  0.3584E+00  0.1469E+00
      1.372  0.3878E+00  0.1639E+00
      1.416  0.0000E+00  0.1639E+00
      1.460  0.0000E+00  0.1639E+00
      1.504  0.0000E+00  0.1639E+00
      1.548  0.0000E+00  0.1639E+00
      1.592  0.6773E-07  0.1639E+00
      1.636  0.7365E+00  0.1963E+00
      1.680  0.1502E+01  0.2623E+00
      1.724  0.2863E-04  0.2623E+00
      1.767  0.0000E+00  0.2623E+00
      1.811  0.0000E+00  0.2623E+00
      1.855  0.0000E+00  0.2623E+00
      1.899  0.0000E+00  0.2623E+00
      1.943  0.0000E+00  0.2623E+00
      1.987  0.0000E+00  0.2623E+00
      2.031  0.0000E+00  0.2623E+00
      2.075  0.0000E+00  0.2623E+00
      2.119  0.0000E+00  0.2623E+00
      2.163  0.0000E+00  0.2623E+00
      2.207  0.0000E+00  0.2623E+00
      2.251  0.0000E+00  0.2623E+00
