    2    2   61    1
  0.4074994E+03  0.1054760E-08  0.1054760E-08  0.8459000E-09  0.2000000E-16
  1.000000000000000E-004
  CAR 
 Pt(111)                                 
      2      1      8
 
  0.0000000E+00  0.0000000E+00  0.0000000E+00  0.1000000E+01
    1      -10.331983   1.000000
    2       -0.190203   0.000000
    3        0.407882   0.000000
    4        1.018082   0.000000
    5        1.328414   0.000000
    6        1.628596   0.000000
    7        1.643458   0.000000
    8        1.651622   0.000000
