       N       E                     dE             d eps       ncg     rms          rms(c)
DAV:   1     0.189421793755E+01    0.18942E+01   -0.17940E+02    16   0.233E+01
DAV:   2    -0.689493735565E+01   -0.87892E+01   -0.87892E+01    16   0.306E+01
DAV:   3    -0.745489806129E+01   -0.55996E+00   -0.55996E+00    24   0.110E+01
DAV:   4    -0.745533183145E+01   -0.43377E-03   -0.43377E-03    16   0.355E-01
DAV:   5    -0.745533424280E+01   -0.24114E-05   -0.24113E-05    24   0.287E-02    0.446E+00
RMM:   6    -0.700234876186E+01    0.45299E+00   -0.16243E-01    16   0.126E+00    0.243E+00
RMM:   7    -0.675380848512E+01    0.24854E+00   -0.45485E-01    16   0.211E+00    0.291E-01
RMM:   8    -0.675760853874E+01   -0.38001E-02   -0.44106E-03    16   0.211E-01    0.249E-01
RMM:   9    -0.675269269324E+01    0.49158E-02   -0.68448E-03    16   0.250E-01    0.365E-02
RMM:  10    -0.675596146339E+01   -0.32688E-02   -0.82387E-04    16   0.816E-02    0.410E-02
RMM:  11    -0.675668923315E+01   -0.72777E-03   -0.10847E-04    16   0.335E-02    0.897E-03
RMM:  12    -0.675836904245E+01   -0.16798E-02   -0.26338E-04    16   0.479E-02    0.618E-03
RMM:  13    -0.675850171113E+01   -0.13267E-03   -0.63298E-06    16   0.775E-03    0.312E-03
RMM:  14    -0.675856207362E+01   -0.60362E-04   -0.35022E-06    16   0.568E-03    0.551E-04
RMM:  15    -0.675857122374E+01   -0.91501E-05   -0.66396E-07    16   0.220E-03    0.220E-04
RMM:  16    -0.675857227489E+01   -0.10511E-05   -0.90294E-08    15   0.808E-04    0.124E-04
RMM:  17    -0.675857278130E+01   -0.50641E-06   -0.40551E-08    15   0.540E-04
   1 F= -.67586229E+01 E0= -.67586229E+01  d E =-.822246E-24
       N       E                     dE             d eps       ncg     rms          rms(c)
DAV:   1    -0.675867945961E+01   -0.10718E-03   -0.14223E-01    16   0.184E+00    0.924E-02
RMM:   2    -0.675865847362E+01    0.20986E-04   -0.39993E-04    16   0.121E-01    0.571E-02
RMM:   3    -0.675865393955E+01    0.45341E-05   -0.92419E-05    16   0.361E-02    0.244E-03
RMM:   4    -0.675865721700E+01   -0.32774E-05   -0.50418E-07    15   0.356E-03    0.149E-03
RMM:   5    -0.675866068218E+01   -0.34652E-05   -0.55890E-07    15   0.331E-03    0.315E-04
RMM:   6    -0.675866377000E+01   -0.30878E-05   -0.12998E-07    15   0.117E-03    0.102E-04
RMM:   7    -0.675866505693E+01   -0.12869E-05   -0.36431E-08    15   0.587E-04    0.956E-05
RMM:   8    -0.675866661077E+01   -0.15538E-05   -0.31453E-08    15   0.541E-04    0.404E-05
RMM:   9    -0.675866683407E+01   -0.22330E-06    0.00000E+00    14   0.194E-04
   2 F= -.67587169E+01 E0= -.67587169E+01  d E =-.777272E-24
       N       E                     dE             d eps       ncg     rms          rms(c)
DAV:   1    -0.675873524881E+01   -0.68638E-04   -0.56804E-01    16   0.367E+00    0.184E-01
RMM:   2    -0.675866099617E+01    0.74253E-04   -0.16141E-03    16   0.241E-01    0.114E-01
RMM:   3    -0.675862170221E+01    0.39294E-04   -0.36254E-04    16   0.709E-02    0.483E-03
RMM:   4    -0.675863185721E+01   -0.10155E-04   -0.23119E-06    16   0.718E-03    0.318E-03
RMM:   5    -0.675864537027E+01   -0.13513E-04   -0.22912E-06    16   0.586E-03    0.601E-04
RMM:   6    -0.675865272867E+01   -0.73584E-05   -0.26886E-07    15   0.148E-03    0.271E-04
RMM:   7    -0.675865816403E+01   -0.54354E-05   -0.28122E-07    15   0.137E-03    0.176E-04
RMM:   8    -0.675866212386E+01   -0.39598E-05   -0.10227E-07    15   0.917E-04    0.549E-05
RMM:   9    -0.675866276871E+01   -0.64485E-06    0.00000E+00    14   0.306E-04
   3 F= -.67587129E+01 E0= -.67587129E+01  d E =-.785653E-24
       N       E                     dE             d eps       ncg     rms          rms(c)
DAV:   1    -0.674565491128E+01    0.13007E-01   -0.31881E-01    16   0.268E+00    0.213E-01
RMM:   2    -0.674510245075E+01    0.55246E-03   -0.14828E-03    16   0.195E-01    0.127E-01
RMM:   3    -0.674484089416E+01    0.26156E-03   -0.85546E-04    16   0.851E-02    0.163E-02
RMM:   4    -0.674484352440E+01   -0.26302E-05   -0.64779E-06    16   0.959E-03    0.879E-03
RMM:   5    -0.674485240155E+01   -0.88772E-05   -0.95618E-06    16   0.109E-02    0.345E-03
RMM:   6    -0.674485443289E+01   -0.20313E-05   -0.42873E-07    15   0.212E-03    0.119E-03
RMM:   7    -0.674486435701E+01   -0.99241E-05   -0.13216E-06    16   0.308E-03    0.126E-03
RMM:   8    -0.674486693501E+01   -0.25780E-05   -0.13465E-07    15   0.115E-03    0.485E-04
RMM:   9    -0.674486987740E+01   -0.29424E-05   -0.55172E-08    15   0.652E-04    0.191E-04
RMM:  10    -0.674487098174E+01   -0.11043E-05    0.00000E+00    14   0.383E-04    0.115E-04
RMM:  11    -0.674487125944E+01   -0.27769E-06   -0.28640E-08    15   0.467E-04
   4 F= -.67449206E+01 E0= -.67449206E+01  d E =-.345101E-24
       N       E                     dE             d eps       ncg     rms          rms(c)
DAV:   1    -0.676098318786E+01   -0.16112E-01   -0.68251E-01    16   0.384E+00    0.381E-01
RMM:   2    -0.675877486285E+01    0.22083E-02   -0.36770E-03    16   0.277E-01    0.212E-01
RMM:   3    -0.675778967688E+01    0.98519E-03   -0.23854E-03    16   0.140E-01    0.214E-02
RMM:   4    -0.675781830355E+01   -0.28627E-04   -0.74997E-05    16   0.297E-02    0.492E-03
RMM:   5    -0.675782653420E+01   -0.82306E-05   -0.12465E-05    16   0.131E-02    0.145E-03
RMM:   6    -0.675783806358E+01   -0.11529E-04   -0.38878E-06    16   0.579E-03    0.189E-03
RMM:   7    -0.675783955677E+01   -0.14932E-05   -0.23154E-07    15   0.178E-03    0.791E-04
RMM:   8    -0.675784184663E+01   -0.22899E-05   -0.29449E-07    15   0.139E-03    0.239E-04
RMM:   9    -0.675784240546E+01   -0.55883E-06   -0.56964E-08    15   0.691E-04
   5 F= -.67578934E+01 E0= -.67578934E+01  d E =-.171541E-23
       N       E                     dE             d eps       ncg     rms          rms(c)
DAV:   1    -0.675931387295E+01   -0.14720E-02   -0.31039E-01    16   0.265E+00    0.200E-01
RMM:   2    -0.675886001226E+01    0.45386E-03   -0.15566E-03    16   0.201E-01    0.119E-01
RMM:   3    -0.675863513662E+01    0.22488E-03   -0.68943E-04    16   0.766E-02    0.141E-02
RMM:   4    -0.675864036779E+01   -0.52312E-05   -0.59488E-06    16   0.901E-03    0.733E-03
RMM:   5    -0.675864849143E+01   -0.81236E-05   -0.68096E-06    16   0.930E-03    0.222E-03
RMM:   6    -0.675865240671E+01   -0.39153E-05   -0.68917E-07    16   0.241E-03    0.101E-03
RMM:   7    -0.675865960967E+01   -0.72030E-05   -0.47361E-07    15   0.179E-03    0.517E-04
RMM:   8    -0.675866323411E+01   -0.36244E-05   -0.12944E-07    15   0.967E-04    0.109E-04
RMM:   9    -0.675866456804E+01   -0.13339E-05   -0.44470E-08    15   0.529E-04    0.973E-05
RMM:  10    -0.675866554777E+01   -0.97973E-06    0.00000E+00    14   0.398E-04
   6 F= -.67587157E+01 E0= -.67587157E+01  d E =-.855803E-24
       N       E                     dE             d eps       ncg     rms          rms(c)
DAV:   1    -0.675872226092E+01   -0.57693E-04   -0.56796E-01    16   0.367E+00    0.184E-01
RMM:   2    -0.675864169299E+01    0.80568E-04   -0.16384E-03    16   0.244E-01    0.114E-01
RMM:   3    -0.675862061279E+01    0.21080E-04   -0.34900E-04    16   0.710E-02    0.482E-03
RMM:   4    -0.675863166270E+01   -0.11050E-04   -0.22247E-06    16   0.719E-03    0.316E-03
RMM:   5    -0.675864672163E+01   -0.15059E-04   -0.27683E-06    16   0.618E-03    0.572E-04
RMM:   6    -0.675865259174E+01   -0.58701E-05   -0.32791E-07    15   0.151E-03    0.263E-04
RMM:   7    -0.675865624308E+01   -0.36513E-05   -0.39287E-07    15   0.146E-03    0.125E-04
RMM:   8    -0.675865749940E+01   -0.12563E-05   -0.91217E-08    15   0.733E-04    0.716E-05
RMM:   9    -0.675865769456E+01   -0.19517E-06    0.00000E+00    14   0.190E-04
   7 F= -.67587078E+01 E0= -.67587078E+01  d E =-.838194E-24
       N       E                     dE             d eps       ncg     rms          rms(c)
DAV:   1    -0.675869046935E+01   -0.32970E-04   -0.28436E-01    16   0.259E+00    0.131E-01
RMM:   2    -0.675864395490E+01    0.46514E-04   -0.84996E-04    16   0.173E-01    0.808E-02
RMM:   3    -0.675863708857E+01    0.68663E-05   -0.18201E-04    16   0.512E-02    0.337E-03
RMM:   4    -0.675864350593E+01   -0.64174E-05   -0.10443E-06    16   0.477E-03    0.208E-03
RMM:   5    -0.675865059132E+01   -0.70854E-05   -0.11062E-06    16   0.387E-03    0.401E-04
RMM:   6    -0.675865507156E+01   -0.44802E-05   -0.25746E-07    15   0.132E-03    0.129E-04
RMM:   7    -0.675865696728E+01   -0.18957E-05   -0.10319E-07    15   0.787E-04    0.987E-05
RMM:   8    -0.675865877376E+01   -0.18065E-05   -0.48709E-08    15   0.589E-04    0.328E-05
RMM:   9    -0.675865908388E+01   -0.31012E-06    0.00000E+00    14   0.188E-04
   8 F= -.67587092E+01 E0= -.67587092E+01  d E =-.793205E-24
       N       E                     dE             d eps       ncg     rms          rms(c)
DAV:   1    -0.675872949249E+01   -0.70719E-04   -0.56803E-01    16   0.367E+00    0.184E-01
RMM:   2    -0.675865474596E+01    0.74747E-04   -0.16220E-03    16   0.242E-01    0.114E-01
RMM:   3    -0.675861612916E+01    0.38617E-04   -0.36256E-04    16   0.709E-02    0.483E-03
RMM:   4    -0.675862621611E+01   -0.10087E-04   -0.22936E-06    16   0.716E-03    0.318E-03
RMM:   5    -0.675863987867E+01   -0.13663E-04   -0.23200E-06    16   0.588E-03    0.601E-04
RMM:   6    -0.675864719482E+01   -0.73161E-05   -0.27256E-07    15   0.149E-03    0.271E-04
RMM:   7    -0.675865264313E+01   -0.54483E-05   -0.28523E-07    15   0.137E-03    0.175E-04
RMM:   8    -0.675865662613E+01   -0.39830E-05   -0.10724E-07    15   0.932E-04    0.548E-05
RMM:   9    -0.675865728610E+01   -0.65997E-06    0.00000E+00    14   0.308E-04
   9 F= -.67587074E+01 E0= -.67587074E+01  d E =-.766963E-24
       N       E                     dE             d eps       ncg     rms          rms(c)
DAV:   1    -0.675857926018E+01    0.77366E-04   -0.30880E-01    16   0.264E+00    0.202E-01
RMM:   2    -0.675804552185E+01    0.53374E-03   -0.13378E-03    16   0.183E-01    0.118E-01
RMM:   3    -0.675780875147E+01    0.23677E-03   -0.68448E-04    16   0.770E-02    0.133E-02
RMM:   4    -0.675782235749E+01   -0.13606E-04   -0.14751E-05    16   0.134E-02    0.536E-03
RMM:   5    -0.675782489978E+01   -0.25423E-05   -0.37351E-06    16   0.658E-03    0.877E-04
RMM:   6    -0.675783211123E+01   -0.72114E-05   -0.14359E-06    16   0.340E-03    0.119E-03
RMM:   7    -0.675783284848E+01   -0.73725E-06   -0.73189E-08    15   0.961E-04
  10 F= -.67578839E+01 E0= -.67578839E+01  d E =-.152973E-23
       N       E                     dE             d eps       ncg     rms          rms(c)
DAV:   1    -0.674773421095E+01    0.10098E-01   -0.68961E-01    16   0.386E+00    0.373E-01
RMM:   2    -0.674579116704E+01    0.19430E-02   -0.41877E-03    16   0.324E-01    0.217E-01
RMM:   3    -0.674480243108E+01    0.98874E-03   -0.26916E-03    16   0.147E-01    0.251E-02
RMM:   4    -0.674481328744E+01   -0.10856E-04   -0.24100E-05    16   0.180E-02    0.126E-02
RMM:   5    -0.674483504641E+01   -0.21759E-04   -0.29377E-05    16   0.192E-02    0.517E-03
RMM:   6    -0.674484099830E+01   -0.59519E-05   -0.23199E-06    16   0.451E-03    0.104E-03
RMM:   7    -0.674485951404E+01   -0.18516E-04   -0.20991E-06    16   0.375E-03    0.134E-03
RMM:   8    -0.674486562702E+01   -0.61130E-05   -0.18419E-07    15   0.132E-03    0.510E-04
RMM:   9    -0.674487105511E+01   -0.54281E-05   -0.16332E-07    15   0.104E-03    0.140E-04
RMM:  10    -0.674487333341E+01   -0.22783E-05   -0.48833E-08    15   0.633E-04    0.266E-04
RMM:  11    -0.674487369424E+01   -0.36084E-06    0.00000E+00    14   0.304E-04
  11 F= -.67449230E+01 E0= -.67449230E+01  d E =-.350242E-24
       N       E                     dE             d eps       ncg     rms          rms(c)
DAV:   1    -0.675950855305E+01   -0.14635E-01   -0.31674E-01    16   0.267E+00    0.217E-01
RMM:   2    -0.675889478319E+01    0.61377E-03   -0.15506E-03    16   0.191E-01    0.125E-01
RMM:   3    -0.675863766915E+01    0.25711E-03   -0.71796E-04    16   0.794E-02    0.139E-02
RMM:   4    -0.675864990254E+01   -0.12233E-04   -0.16974E-05    16   0.145E-02    0.361E-03
RMM:   5    -0.675865467612E+01   -0.47736E-05   -0.34289E-06    16   0.684E-03    0.915E-04
RMM:   6    -0.675866188732E+01   -0.72112E-05   -0.15903E-06    16   0.348E-03    0.133E-03
RMM:   7    -0.675866255584E+01   -0.66853E-06   -0.90194E-08    15   0.104E-03
  12 F= -.67587127E+01 E0= -.67587127E+01  d E =-.674877E-24
       N       E                     dE             d eps       ncg     rms          rms(c)
DAV:   1    -0.675871751813E+01   -0.55631E-04   -0.56788E-01    16   0.367E+00    0.184E-01
RMM:   2    -0.675864286234E+01    0.74656E-04   -0.17188E-03    16   0.247E-01    0.114E-01
RMM:   3    -0.675862367487E+01    0.19187E-04   -0.34630E-04    16   0.710E-02    0.484E-03
RMM:   4    -0.675863445215E+01   -0.10777E-04   -0.22011E-06    16   0.714E-03    0.316E-03
RMM:   5    -0.675864937154E+01   -0.14919E-04   -0.27472E-06    16   0.615E-03    0.574E-04
RMM:   6    -0.675865526438E+01   -0.58928E-05   -0.33246E-07    15   0.151E-03    0.261E-04
RMM:   7    -0.675865884756E+01   -0.35832E-05   -0.38464E-07    15   0.144E-03    0.124E-04
RMM:   8    -0.675866008834E+01   -0.12408E-05   -0.90594E-08    15   0.729E-04    0.714E-05
RMM:   9    -0.675866027681E+01   -0.18847E-06    0.00000E+00    14   0.186E-04
  13 F= -.67587104E+01 E0= -.67587104E+01  d E =-.828744E-24
