 vasp.5.4.4.18Apr17-6-g9f103f2a35 (build Apr 07 2018 02:38:49) complex          
  
 executed on             LinuxIFC date 2018.07.29  19:48:06
 running on    8 total cores
 distrk:  each k-point on    8 cores,    1 groups
 distr:  one band on NCORES_PER_BAND=   1 cores,    8 groups


--------------------------------------------------------------------------------------------------------


 INCAR:
 POTCAR:   PAW_PBE H 15Jun2001                    

 ----------------------------------------------------------------------------- 
|                                                                             |
|           W    W    AA    RRRRR   N    N  II  N    N   GGGG   !!!           |
|           W    W   A  A   R    R  NN   N  II  NN   N  G    G  !!!           |
|           W    W  A    A  R    R  N N  N  II  N N  N  G       !!!           |
|           W WW W  AAAAAA  RRRRR   N  N N  II  N  N N  G  GGG   !            |
|           WW  WW  A    A  R   R   N   NN  II  N   NN  G    G                |
|           W    W  A    A  R    R  N    N  II  N    N   GGGG   !!!           |
|                                                                             |
|      For optimal performance we recommend to set                            |
|        NCORE= 4 - approx SQRT( number of cores)                             |
|      NCORE specifies how many cores store one orbital (NPAR=cpu/NCORE).     |
|      This setting can  greatly improve the performance of VASP for DFT.     |
|      The default,   NCORE=1            might be grossly inefficient         |
|      on modern multi-core architectures or massively parallel machines.     |
|      Do your own testing !!!!                                               |
|      Unfortunately you need to use the default for GW and RPA calculations. |
|      (for HF NCORE is supported but not extensively tested yet)             |
|                                                                             |
 ----------------------------------------------------------------------------- 

 POTCAR:   PAW_PBE H 15Jun2001                    
  local pseudopotential read in
  atomic valenz-charges read in
  non local Contribution for L=           0  read in
    real space projection operators read in
  non local Contribution for L=           0  read in
    real space projection operators read in
  non local Contribution for L=           1  read in
    real space projection operators read in
    PAW grid and wavefunctions read in
 
   number of l-projection  operators is LMAX  =           3
   number of lm-projection operators is LMMAX =           5
 

 ----------------------------------------------------------------------------- 
|                                                                             |
|  ADVICE TO THIS USER RUNNING 'VASP/VAMP'   (HEAR YOUR MASTER'S VOICE ...):  |
|                                                                             |
|      You have a (more or less) 'small supercell' and for smaller cells      |
|      it is recommended  to use the reciprocal-space projection scheme!      |
|      The real space optimization is not  efficient for small cells and it   |
|      is also less accurate ...                                              |
|      Therefore set LREAL=.FALSE. in the  INCAR file                         |
|                                                                             |
 ----------------------------------------------------------------------------- 

 Optimization of the real space projectors (new method)

 maximal supplied QI-value         = 34.20
 optimisation between [QCUT,QGAM] = [  9.92, 20.18] = [ 27.55,114.04] Ry 
 Optimized for a Real-space Cutoff    1.26 Angstroem

   l    n(q)    QCUT    max X(q) W(low)/X(q) W(high)/X(q)  e(spline) 
   0      8     9.919     4.436    0.80E-04    0.66E-04    0.52E-07
   0      8     9.919    16.131    0.48E-03    0.23E-03    0.28E-06
   1      7     9.919     4.654    0.17E-03    0.75E-03    0.30E-06
 PAW_PBE H 15Jun2001                    :
 energy of atom  1       EATOM=  -12.4884
 kinetic energy error for atom=    0.0098 (will be added to EATOM!!)
 
 
 POSCAR: CONTCAR2                                
  positions in cartesian coordinates
  No initial velocities read in
 exchange correlation table for  LEXCH =        8
   RHO(1)=    0.500       N(1)  =     2000
   RHO(2)=  100.500       N(2)  =     4000

 VTST: version 3.1, (03/28/14)

 CHAIN: initializing optimizer
 
 OPT: Using VASP Dynamics algorithm
 CHAIN: Read ICHAIN            0
 
 POSCAR: CONTCAR2                                
  positions in cartesian coordinates
  No initial velocities read in
 


--------------------------------------------------------------------------------------------------------


 ion  position               nearest neighbor table
   1  0.376  0.752  0.936-   2 0.74
   2  0.417  0.833  0.936-   1 0.74
 
  LATTYP: Found a hexagonal cell.
 ALAT       =    10.5475997925
 C/A-ratio  =     0.8019833706
  
  Lattice vectors:
  
 A1 = (  10.5475997925,   0.0000000000,   0.0000000000)
 A2 = (  -5.2737998962,   9.1344893692,   0.0000000000)
 A3 = (   0.0000000000,   0.0000000000,   8.4589996338)


Analysis of symmetry for initial positions (statically):
=====================================================================
 Subroutine PRICEL returns:
 Original cell was already a primitive cell.
 

 Routine SETGRP: Setting up the symmetry group for a 
 hexagonal supercell.


 Subroutine GETGRP returns: Found  8 space group operations
 (whereof  1 operations were pure point group operations)
 out of a pool of 24 trial point group operations.


The static configuration has the point symmetry C_1 .
 The point group associated with its full space group is D_2h.


Analysis of symmetry for dynamics (positions and initial velocities):
=====================================================================
 Subroutine PRICEL returns:
 Original cell was already a primitive cell.
 

 Routine SETGRP: Setting up the symmetry group for a 
 hexagonal supercell.


 Subroutine GETGRP returns: Found  8 space group operations
 (whereof  1 operations were pure point group operations)
 out of a pool of 24 trial point group operations.


The dynamic configuration has the point symmetry C_1 .
 The point group associated with its full space group is D_2h.


Analysis of constrained symmetry for selective dynamics:
=====================================================================
 Subroutine PRICEL returns:
 Original cell was already a primitive cell.
 

 Routine SETGRP: Setting up the symmetry group for a 
 hexagonal supercell.


 Subroutine GETGRP returns: Found  8 space group operations
 (whereof  1 operations were pure point group operations)
 out of a pool of 24 trial point group operations.


The constrained configuration has the point symmetry C_1 .
 The point group associated with its full space group is D_2h.


 Subroutine INISYM returns: Found  8 space group operations
 (whereof  1 operations are pure point group operations),
 and found     1 'primitive' translations

 
 
 KPOINTS: K-POINTS                                

Automatic generation of k-mesh.
Space group operators:
 irot       det(A)        alpha          n_x          n_y          n_z        tau_x        tau_y        tau_z
    1     1.000000     0.000000     1.000000     0.000000     0.000000     0.000000     0.000000     0.000000
    2    -1.000000     0.000000     1.000000     0.000000     0.000000     0.792722     0.585425     0.871441
    3     1.000000   180.000000     0.000000     0.000000     1.000000     0.792722     0.585425     0.000000
    4    -1.000000   180.000000     0.000000     0.000000     1.000000     0.000000     0.000000     0.871441
    5     1.000000   180.000000     1.000000    -0.000000     0.000000     0.792712     0.585425     0.871441
    6    -1.000000   180.000000     1.000000    -0.000000     0.000000     0.000010     0.000000     0.000000
    7     1.000000   180.000000     0.000000     1.000000     0.000000     0.000010     0.000000     0.871441
    8    -1.000000   180.000000     0.000000     1.000000     0.000000     0.792712     0.585425     0.000000
 
 Subroutine IBZKPT returns following result:
 ===========================================
 
 Found      1 irreducible k-points:
 
 Following reciprocal coordinates:
            Coordinates               Weight
  0.000000  0.000000  0.000000      1.000000
 
 Following cartesian coordinates:
            Coordinates               Weight
  0.000000  0.000000  0.000000      1.000000
 
 
 Subroutine IBZKPT_HF returns following result:
 ==============================================
 
 Found      1 k-points in 1st BZ
 the following      1 k-points will be used (e.g. in the exchange kernel)
 Following reciprocal coordinates:   # in IRBZ
  0.000000  0.000000  0.000000    1.00000000   1 t-inv F


--------------------------------------------------------------------------------------------------------




 Dimension of arrays:
   k-points           NKPTS =      1   k-points in BZ     NKDIM =      1   number of bands    NBANDS=      8
   number of dos      NEDOS =    301   number of ions     NIONS =      2
   non local maximal  LDIM  =      3   non local SUM 2l+1 LMDIM =      5
   total plane-waves  NPLWV = 122472
   max r-space proj   IRMAX =   1319   max aug-charges    IRDMAX=    930
   dimension x,y,z NGX =    54 NGY =   54 NGZ =   42
   dimension x,y,z NGXF=   108 NGYF=  108 NGZF=   84
   support grid    NGXF=   108 NGYF=  108 NGZF=   84
   ions per type =               2
   NGX,Y,Z   is equivalent  to a cutoff of   8.51,  8.51,  8.25 a.u.
   NGXF,Y,Z  is equivalent  to a cutoff of  17.02, 17.02, 16.51 a.u.

 SYSTEM =  Pt(111)                                 
 POSCAR =  CONTCAR2                                

 Startparameter for this run:
   NWRITE =      0    write-flag & timer
   PREC   = n         normal or accurate (medium, high low for compatibility)
   ISTART =      0    job   : 0-new  1-cont  2-samecut
   ICHARG =      2    charge: 1-file 2-atom 10-const
   ISPIN  =      1    spin polarized calculation?
   LNONCOLLINEAR =      F non collinear calculations
   LSORBIT =      F    spin-orbit coupling
   INIWAV =      1    electr: 0-lowe 1-rand  2-diag
   LASPH  =      F    aspherical Exc in radial PAW
   METAGGA=      F    non-selfconsistent MetaGGA calc.

 Electronic Relaxation 1
   ENCUT  =  400.0 eV  29.40 Ry    5.42 a.u.  17.20 17.20 13.79*2*pi/ulx,y,z
   ENINI  =  400.0     initial cutoff
   ENAUG  =  400.0 eV  augmentation charge cutoff
   NELM   =    100;   NELMIN=  2; NELMDL=  0     # of ELM steps 
   EDIFF  = 0.1E-05   stopping-criterion for ELM
   LREAL  =      T    real-space projection
   NLSPLINE    = F    spline interpolate recip. space projectors
   LCOMPAT=      F    compatible to vasp.4.4
   GGA_COMPAT  = T    GGA compatible to vasp.4.4-vasp.4.6
   LMAXPAW     = -100 max onsite density
   LMAXMIX     =    2 max onsite mixed and CHGCAR
   VOSKOWN=      0    Vosko Wilk Nusair interpolation
   ROPT   =   -0.00050
 Ionic relaxation
   EDIFFG = 0.1E-04   stopping-criterion for IOM
   NSW    =     61    number of steps for IOM
   NBLOCK =      1;   KBLOCK =     61    inner block; outer block 
   IBRION =      5    ionic relax: 0-MD 1-quasi-New 2-CG
   NFREE  =      2    steps in history (QN), initial steepest desc. (CG)
   ISIF   =      2    stress and relaxation
   IWAVPR =     11    prediction:  0-non 1-charg 2-wave 3-comb
   ISYM   =      2    0-nonsym 1-usesym 2-fastsym
   LCORR  =      T    Harris-Foulkes like correction to forces

   POTIM  = 0.0200    time-step for ionic-motion
   TEIN   =    0.0    initial temperature
   TEBEG  =    0.0;   TEEND  =   0.0 temperature during run
   SMASS  =  -3.00    Nose mass-parameter (am)
   estimated Nose-frequenzy (Omega)   =  0.10E-29 period in steps =****** mass=  -0.254E-26a.u.
   SCALEE = 1.0000    scale energy and forces
   NPACO  =    256;   APACO  = 16.0  distance and # of slots for P.C.
   PSTRESS=    0.0 pullay stress

  Mass of Ions in am
   POMASS =   1.00
  Ionic Valenz
   ZVAL   =   1.00
  Atomic Wigner-Seitz radii
   RWIGS  =  -1.00
  virtual crystal weights 
   VCA    =   1.00
   NELECT =       2.0000    total number of electrons
   NUPDOWN=      -1.0000    fix difference up-down

 DOS related values:
   EMIN   =  10.00;   EMAX   =-10.00  energy-range for DOS
   EFERMI =   0.00
   ISMEAR =     0;   SIGMA  =   0.01  broadening in eV -4-tet -1-fermi 0-gaus

 Electronic relaxation 2 (details)
   IALGO  =     68    algorithm
   LDIAG  =      T    sub-space diagonalisation (order eigenvalues)
   LSUBROT=      F    optimize rotation matrix (better conditioning)
   TURBO    =      0    0=normal 1=particle mesh
   IRESTART =      0    0=no restart 2=restart with 2 vectors
   NREBOOT  =      0    no. of reboots
   NMIN     =      0    reboot dimension
   EREF     =   0.00    reference energy to select bands
   IMIX   =      4    mixing-type and parameters
     AMIX     =   0.40;   BMIX     =  1.00
     AMIX_MAG =   1.60;   BMIX_MAG =  1.00
     AMIN     =   0.10
     WC   =   100.;   INIMIX=   1;  MIXPRE=   1;  MAXMIX= -45

 Intra band minimization:
   WEIMIN = 0.0010     energy-eigenvalue tresh-hold
   EBREAK =  0.31E-07  absolut break condition
   DEPER  =   0.30     relativ break condition  

   TIME   =   0.40     timestep for ELM

  volume/ion in A,a.u.               =     407.50      2749.94
  Fermi-wavevector in a.u.,A,eV,Ry     =   0.220817  0.417284  0.663422  0.048760
  Thomas-Fermi vector in A             =   1.002006
 
 Write flags
   LWAVE        =      F    write WAVECAR
   LDOWNSAMPLE  =      F    k-point downsampling of WAVECAR
   LCHARG       =      F    write CHGCAR
   LVTOT        =      F    write LOCPOT, total local potential
   LVHAR        =      F    write LOCPOT, Hartree potential only
   LELF         =      F    write electronic localiz. function (ELF)
   LORBIT       =      0    0 simple, 1 ext, 2 COOP (PROOUT), +10 PAW based schemes


 Dipole corrections
   LMONO  =      F    monopole corrections only (constant potential shift)
   LDIPOL =      F    correct potential (dipole corrections)
   IDIPOL =      0    1-x, 2-y, 3-z, 4-all directions 
   EPSILON=  1.0000000 bulk dielectric constant

 Exchange correlation treatment:
   GGA     =    --    GGA type
   LEXCH   =     8    internal setting for exchange type
   VOSKOWN=      0    Vosko Wilk Nusair interpolation
   LHFCALC =     F    Hartree Fock is set to
   LHFONE  =     F    Hartree Fock one center treatment
   AEXX    =    0.0000 exact exchange contribution

 Linear response parameters
   LEPSILON=     F    determine dielectric tensor
   LRPA    =     F    only Hartree local field effects (RPA)
   LNABLA  =     F    use nabla operator in PAW spheres
   LVEL    =     F    velocity operator in full k-point grid
   LINTERFAST=   F  fast interpolation
   KINTER  =     0    interpolate to denser k-point grid
   CSHIFT  =0.1000    complex shift for real part using Kramers Kronig
   OMEGAMAX=  -1.0    maximum frequency
   DEG_THRESHOLD= 0.2000000E-02 threshold for treating states as degnerate
   RTIME   =   -0.100 relaxation time in fs
  (WPLASMAI=    0.000 imaginary part of plasma frequency in eV, 0.658/RTIME)
   DFIELD  = 0.0000000 0.0000000 0.0000000 field for delta impulse in time
 
 Orbital magnetization related:
   ORBITALMAG=     F  switch on orbital magnetization
   LCHIMAG   =     F  perturbation theory with respect to B field
   DQ        =  0.001000  dq finite difference perturbation B field
   LLRAUG    =     F  two centre corrections for induced B field



--------------------------------------------------------------------------------------------------------


 finite differences
   using selective dynamics as specified on POSCAR
   WARNING: If single coordinates had been selected the selection of coordinates
            is made according to the corresponding   d i r e c t   coordinates!
            Don't support selection of single cartesian coordinates -- sorry ...
  !
 charge density and potential will be updated during run
 non-spin polarized calculation
 RMM-DIIS sequential band-by-band and
  variant of blocked Davidson during initial phase
 perform sub-space diagonalisation
    before iterative eigenvector-optimisation
 modified Broyden-mixing scheme, WC =      100.0
 initial mixing is a Kerker type mixing with AMIX =  0.4000 and BMIX =      1.0000
 Hartree-type preconditioning will be used
 using additional bands            7
 real space projection scheme for non local part
 calculate Harris-corrections to forces 
   (improved forces if not selfconsistent)
 use gradient corrections 
 use of overlap-Matrix (Vanderbilt PP)
 Gauss-broadening in eV      SIGMA  =   0.01


--------------------------------------------------------------------------------------------------------


  energy-cutoff  :      400.00
  volume of cell :      815.00
      direct lattice vectors                 reciprocal lattice vectors
    10.547599792  0.000000000  0.000000000     0.094808299  0.054737597  0.000000000
    -5.273799896  9.134489369  0.000000000     0.000000000  0.109475194  0.000000000
     0.000000000  0.000000000  8.458999634     0.000000000  0.000000000  0.118217288

  length of vectors
    10.547599792 10.547599792  8.458999634     0.109475194  0.109475194  0.118217288


 
 k-points in units of 2pi/SCALE and weight: K-POINTS                                
   0.00000000  0.00000000  0.00000000       1.000
 
 k-points in reciprocal lattice and weights: K-POINTS                                
   0.00000000  0.00000000  0.00000000       1.000
 
 position of ions in fractional coordinates (direct lattice) 
   0.37605230  0.75209459  0.93572038
   0.41666999  0.83332998  0.93572038
 
 position of ions in cartesian coordinates  (Angst):
   0.00005281  6.87000000  7.91525835
   0.00005281  7.61204380  7.91525835
 


--------------------------------------------------------------------------------------------------------


 k-point  1 :   0.0000 0.0000 0.0000  plane waves:   14811

 maximum and minimum number of plane-waves per node :     14811    14811

 maximum number of plane-waves:     14811
 maximum index in each direction: 
   IXMAX=   17   IYMAX=   17   IZMAX=   13
   IXMIN=  -17   IYMIN=  -17   IZMIN=  -13


 serial   3D FFT for wavefunctions
 parallel 3D FFT for charge:
    minimum data exchange during FFTs selected (reduces bandwidth)


 total amount of memory used by VASP MPI-rank0    46358. kBytes
=======================================================================

   base      :      30000. kBytes
   nonlr-proj:        151. kBytes
   fftplans  :       4830. kBytes
   grid      :      11138. kBytes
   one-center:          2. kBytes
   wavefun   :        237. kBytes
 
     INWAV:  cpu time    0.0000: real time    0.0000
 Broyden mixing: mesh for mixing (old mesh)
   NGX = 35   NGY = 35   NGZ = 27
  (NGX  =108   NGY  =108   NGZ  = 84)
  gives a total of  33075 points

 initial charge density was supplied:
 charge density of overlapping atoms calculated
 number of electron       2.0000000 magnetization 
 keeping initial charge density in first step


--------------------------------------------------------------------------------------------------------


 Maximum index for non-local projection operator         1238
 Maximum index for augmentation-charges           98 (set IRDMAX)


--------------------------------------------------------------------------------------------------------


 First call to EWALD:  gamma=   0.190
 Maximum number of real-space cells 3x 3x 3
 Maximum number of reciprocal cells 3x 3x 3

    FEWALD:  cpu time    0.0015: real time    0.0015


--------------------------------------- Iteration      1(   1)  ---------------------------------------


    POTLOK:  cpu time    0.0855: real time    0.0867
    SETDIJ:  cpu time    0.0011: real time    0.0012
     EDDAV:  cpu time    0.0262: real time    0.0262
       DOS:  cpu time    0.0002: real time    0.0002
    --------------------------------------------
      LOOP:  cpu time    0.1130: real time    0.1143

 eigenvalue-minimisations  :    16
 total energy-change (2. order) : 0.1894218E+01  (-0.1793978E+02)
 number of electron       2.0000000 magnetization 
 augmentation part        2.0000000 magnetization 

 Free energy of the ion-electron system (eV)
  ---------------------------------------------------
  alpha Z        PSCENC =         0.01195684
  Ewald energy   TEWEN  =        10.66300753
  -Hartree energ DENC   =       -20.11106158
  -exchange      EXHF   =         0.00000000
  -V(xc)+E(xc)   XCENC  =         4.35511966
  PAW double counting   =         1.56265142       -1.58066687
  entropy T*S    EENTRO =        -0.00000000
  eigenvalues    EBANDS =       -17.96405439
  atomic energy  EATOM  =        24.95726533
  Solvation  Ediel_sol  =         0.00000000
  ---------------------------------------------------
  free energy    TOTEN  =         1.89421794 eV

  energy without entropy =        1.89421794  energy(sigma->0) =        1.89421794


--------------------------------------------------------------------------------------------------------




--------------------------------------- Iteration      1(   2)  ---------------------------------------


     EDDAV:  cpu time    0.0262: real time    0.0268
       DOS:  cpu time    0.0001: real time    0.0001
    --------------------------------------------
      LOOP:  cpu time    0.0263: real time    0.0269

 eigenvalue-minimisations  :    16
 total energy-change (2. order) :-0.8789155E+01  (-0.8789155E+01)
 number of electron       2.0000000 magnetization 
 augmentation part        2.0000000 magnetization 

 Free energy of the ion-electron system (eV)
  ---------------------------------------------------
  alpha Z        PSCENC =         0.01195684
  Ewald energy   TEWEN  =        10.66300753
  -Hartree energ DENC   =       -20.11106158
  -exchange      EXHF   =         0.00000000
  -V(xc)+E(xc)   XCENC  =         4.35511966
  PAW double counting   =         1.56265142       -1.58066687
  entropy T*S    EENTRO =        -0.00000000
  eigenvalues    EBANDS =       -26.75320968
  atomic energy  EATOM  =        24.95726533
  Solvation  Ediel_sol  =         0.00000000
  ---------------------------------------------------
  free energy    TOTEN  =        -6.89493736 eV

  energy without entropy =       -6.89493736  energy(sigma->0) =       -6.89493736


--------------------------------------------------------------------------------------------------------




--------------------------------------- Iteration      1(   3)  ---------------------------------------


     EDDAV:  cpu time    0.0338: real time    0.0340
       DOS:  cpu time    0.0002: real time    0.0001
    --------------------------------------------
      LOOP:  cpu time    0.0340: real time    0.0341

 eigenvalue-minimisations  :    24
 total energy-change (2. order) :-0.5599607E+00  (-0.5599607E+00)
 number of electron       2.0000000 magnetization 
 augmentation part        2.0000000 magnetization 

 Free energy of the ion-electron system (eV)
  ---------------------------------------------------
  alpha Z        PSCENC =         0.01195684
  Ewald energy   TEWEN  =        10.66300753
  -Hartree energ DENC   =       -20.11106158
  -exchange      EXHF   =         0.00000000
  -V(xc)+E(xc)   XCENC  =         4.35511966
  PAW double counting   =         1.56265142       -1.58066687
  entropy T*S    EENTRO =        -0.00000000
  eigenvalues    EBANDS =       -27.31317039
  atomic energy  EATOM  =        24.95726533
  Solvation  Ediel_sol  =         0.00000000
  ---------------------------------------------------
  free energy    TOTEN  =        -7.45489806 eV

  energy without entropy =       -7.45489806  energy(sigma->0) =       -7.45489806


--------------------------------------------------------------------------------------------------------




--------------------------------------- Iteration      1(   4)  ---------------------------------------


     EDDAV:  cpu time    0.0243: real time    0.0245
       DOS:  cpu time    0.0001: real time    0.0001
    --------------------------------------------
      LOOP:  cpu time    0.0244: real time    0.0246

 eigenvalue-minimisations  :    16
 total energy-change (2. order) :-0.4337702E-03  (-0.4337702E-03)
 number of electron       2.0000000 magnetization 
 augmentation part        2.0000000 magnetization 

 Free energy of the ion-electron system (eV)
  ---------------------------------------------------
  alpha Z        PSCENC =         0.01195684
  Ewald energy   TEWEN  =        10.66300753
  -Hartree energ DENC   =       -20.11106158
  -exchange      EXHF   =         0.00000000
  -V(xc)+E(xc)   XCENC  =         4.35511966
  PAW double counting   =         1.56265142       -1.58066687
  entropy T*S    EENTRO =        -0.00000000
  eigenvalues    EBANDS =       -27.31360416
  atomic energy  EATOM  =        24.95726533
  Solvation  Ediel_sol  =         0.00000000
  ---------------------------------------------------
  free energy    TOTEN  =        -7.45533183 eV

  energy without entropy =       -7.45533183  energy(sigma->0) =       -7.45533183


--------------------------------------------------------------------------------------------------------




--------------------------------------- Iteration      1(   5)  ---------------------------------------


     EDDAV:  cpu time    0.0335: real time    0.0336
       DOS:  cpu time    0.0001: real time    0.0001
    CHARGE:  cpu time    0.0219: real time    0.0220
    MIXING:  cpu time    0.0022: real time    0.0022
    --------------------------------------------
      LOOP:  cpu time    0.0577: real time    0.0580

 eigenvalue-minimisations  :    24
 total energy-change (2. order) :-0.2411350E-05  (-0.2411350E-05)
 number of electron       1.9999995 magnetization 
 augmentation part        0.0466287 magnetization 

 Broyden mixing:
  rms(total) = 0.44590E+00    rms(broyden)= 0.44574E+00
  rms(prec ) = 0.59727E+00
  weight for this iteration     100.00

 Free energy of the ion-electron system (eV)
  ---------------------------------------------------
  alpha Z        PSCENC =         0.01195684
  Ewald energy   TEWEN  =        10.66300753
  -Hartree energ DENC   =       -20.11106158
  -exchange      EXHF   =         0.00000000
  -V(xc)+E(xc)   XCENC  =         4.35511966
  PAW double counting   =         1.56265142       -1.58066687
  entropy T*S    EENTRO =        -0.00000000
  eigenvalues    EBANDS =       -27.31360657
  atomic energy  EATOM  =        24.95726533
  Solvation  Ediel_sol  =         0.00000000
  ---------------------------------------------------
  free energy    TOTEN  =        -7.45533424 eV

  energy without entropy =       -7.45533424  energy(sigma->0) =       -7.45533424


--------------------------------------------------------------------------------------------------------




--------------------------------------- Iteration      1(   6)  ---------------------------------------


    POTLOK:  cpu time    0.0885: real time    0.0887
    SETDIJ:  cpu time    0.0011: real time    0.0011
    EDDIAG:  cpu time    0.0067: real time    0.0068
  RMM-DIIS:  cpu time    0.0209: real time    0.0210
    ORTHCH:  cpu time    0.0012: real time    0.0012
       DOS:  cpu time    0.0001: real time    0.0001
    CHARGE:  cpu time    0.0212: real time    0.0212
    MIXING:  cpu time    0.0025: real time    0.0025
    --------------------------------------------
      LOOP:  cpu time    0.1421: real time    0.1425

 eigenvalue-minimisations  :    16
 total energy-change (2. order) : 0.4529855E+00  (-0.1624326E-01)
 number of electron       1.9999995 magnetization 
 augmentation part        0.0448187 magnetization 

 Broyden mixing:
  rms(total) = 0.24333E+00    rms(broyden)= 0.24333E+00
  rms(prec ) = 0.33382E+00
  weight for this iteration     100.00

 eigenvalues of (default mixing * dielectric matrix)
  average eigenvalue GAMMA=   2.1818
  2.1818

 Free energy of the ion-electron system (eV)
  ---------------------------------------------------
  alpha Z        PSCENC =         0.01195684
  Ewald energy   TEWEN  =        10.66300753
  -Hartree energ DENC   =       -22.62723892
  -exchange      EXHF   =         0.00000000
  -V(xc)+E(xc)   XCENC  =         4.71571004
  PAW double counting   =         4.34876799       -4.38085441
  entropy T*S    EENTRO =        -0.00000000
  eigenvalues    EBANDS =       -24.69096315
  atomic energy  EATOM  =        24.95726533
  Solvation  Ediel_sol  =         0.00000000
  ---------------------------------------------------
  free energy    TOTEN  =        -7.00234876 eV

  energy without entropy =       -7.00234876  energy(sigma->0) =       -7.00234876


--------------------------------------------------------------------------------------------------------




--------------------------------------- Iteration      1(   7)  ---------------------------------------


    POTLOK:  cpu time    0.0681: real time    0.0684
    SETDIJ:  cpu time    0.0011: real time    0.0011
    EDDIAG:  cpu time    0.0054: real time    0.0054
  RMM-DIIS:  cpu time    0.0206: real time    0.0206
    ORTHCH:  cpu time    0.0007: real time    0.0006
       DOS:  cpu time    0.0001: real time    0.0001
    CHARGE:  cpu time    0.0212: real time    0.0213
    MIXING:  cpu time    0.0025: real time    0.0025
    --------------------------------------------
      LOOP:  cpu time    0.1196: real time    0.1199

 eigenvalue-minimisations  :    16
 total energy-change (2. order) : 0.2485403E+00  (-0.4548456E-01)
 number of electron       1.9999995 magnetization 
 augmentation part        0.0418480 magnetization 

 Broyden mixing:
  rms(total) = 0.29133E-01    rms(broyden)= 0.29037E-01
  rms(prec ) = 0.43041E-01
  weight for this iteration     100.00

 eigenvalues of (default mixing * dielectric matrix)
  average eigenvalue GAMMA=   2.4393
  2.4393  2.4393

 Free energy of the ion-electron system (eV)
  ---------------------------------------------------
  alpha Z        PSCENC =         0.01195684
  Ewald energy   TEWEN  =        10.66300753
  -Hartree energ DENC   =       -26.55106511
  -exchange      EXHF   =         0.00000000
  -V(xc)+E(xc)   XCENC  =         5.28562322
  PAW double counting   =         9.48532321       -9.54009275
  entropy T*S    EENTRO =        -0.00000000
  eigenvalues    EBANDS =       -21.06582675
  atomic energy  EATOM  =        24.95726533
  Solvation  Ediel_sol  =         0.00000000
  ---------------------------------------------------
  free energy    TOTEN  =        -6.75380849 eV

  energy without entropy =       -6.75380849  energy(sigma->0) =       -6.75380849


--------------------------------------------------------------------------------------------------------




--------------------------------------- Iteration      1(   8)  ---------------------------------------


    POTLOK:  cpu time    0.0664: real time    0.0665
    SETDIJ:  cpu time    0.0011: real time    0.0011
    EDDIAG:  cpu time    0.0061: real time    0.0061
  RMM-DIIS:  cpu time    0.0197: real time    0.0197
    ORTHCH:  cpu time    0.0007: real time    0.0006
       DOS:  cpu time    0.0001: real time    0.0001
    CHARGE:  cpu time    0.0224: real time    0.0225
    MIXING:  cpu time    0.0029: real time    0.0029
    --------------------------------------------
      LOOP:  cpu time    0.1192: real time    0.1195

 eigenvalue-minimisations  :    16
 total energy-change (2. order) :-0.3800054E-02  (-0.4410581E-03)
 number of electron       1.9999995 magnetization 
 augmentation part        0.0419759 magnetization 

 Broyden mixing:
  rms(total) = 0.24857E-01    rms(broyden)= 0.24854E-01
  rms(prec ) = 0.35773E-01
  weight for this iteration     100.00

 eigenvalues of (default mixing * dielectric matrix)
  average eigenvalue GAMMA=   2.0688
  1.0762  2.1737  2.9565

 Free energy of the ion-electron system (eV)
  ---------------------------------------------------
  alpha Z        PSCENC =         0.01195684
  Ewald energy   TEWEN  =        10.66300753
  -Hartree energ DENC   =       -26.38549768
  -exchange      EXHF   =         0.00000000
  -V(xc)+E(xc)   XCENC  =         5.24827981
  PAW double counting   =         8.26662067       -8.31479168
  entropy T*S    EENTRO =        -0.00000000
  eigenvalues    EBANDS =       -21.20444935
  atomic energy  EATOM  =        24.95726533
  Solvation  Ediel_sol  =         0.00000000
  ---------------------------------------------------
  free energy    TOTEN  =        -6.75760854 eV

  energy without entropy =       -6.75760854  energy(sigma->0) =       -6.75760854


--------------------------------------------------------------------------------------------------------




--------------------------------------- Iteration      1(   9)  ---------------------------------------


    POTLOK:  cpu time    0.0780: real time    0.0782
    SETDIJ:  cpu time    0.0011: real time    0.0011
    EDDIAG:  cpu time    0.0063: real time    0.0063
  RMM-DIIS:  cpu time    0.0243: real time    0.0244
    ORTHCH:  cpu time    0.0007: real time    0.0007
       DOS:  cpu time    0.0001: real time    0.0001
    CHARGE:  cpu time    0.0240: real time    0.0241
    MIXING:  cpu time    0.0029: real time    0.0029
    --------------------------------------------
      LOOP:  cpu time    0.1374: real time    0.1378

 eigenvalue-minimisations  :    16
 total energy-change (2. order) : 0.4915845E-02  (-0.6844764E-03)
 number of electron       1.9999996 magnetization 
 augmentation part        0.0416652 magnetization 

 Broyden mixing:
  rms(total) = 0.36492E-02    rms(broyden)= 0.36350E-02
  rms(prec ) = 0.90164E-02
  weight for this iteration     100.00

 eigenvalues of (default mixing * dielectric matrix)
  average eigenvalue GAMMA=   2.6030
  4.4279  0.9905  2.4968  2.4968

 Free energy of the ion-electron system (eV)
  ---------------------------------------------------
  alpha Z        PSCENC =         0.01195684
  Ewald energy   TEWEN  =        10.66300753
  -Hartree energ DENC   =       -26.94763353
  -exchange      EXHF   =         0.00000000
  -V(xc)+E(xc)   XCENC  =         5.32446734
  PAW double counting   =         8.85235104       -8.90287970
  entropy T*S    EENTRO =        -0.00000000
  eigenvalues    EBANDS =       -20.71122753
  atomic energy  EATOM  =        24.95726533
  Solvation  Ediel_sol  =         0.00000000
  ---------------------------------------------------
  free energy    TOTEN  =        -6.75269269 eV

  energy without entropy =       -6.75269269  energy(sigma->0) =       -6.75269269


--------------------------------------------------------------------------------------------------------




--------------------------------------- Iteration      1(  10)  ---------------------------------------


    POTLOK:  cpu time    0.0720: real time    0.0722
    SETDIJ:  cpu time    0.0015: real time    0.0015
    EDDIAG:  cpu time    0.0061: real time    0.0061
  RMM-DIIS:  cpu time    0.0223: real time    0.0223
    ORTHCH:  cpu time    0.0006: real time    0.0006
       DOS:  cpu time    0.0001: real time    0.0001
    CHARGE:  cpu time    0.0213: real time    0.0213
    MIXING:  cpu time    0.0030: real time    0.0030
    --------------------------------------------
      LOOP:  cpu time    0.1268: real time    0.1271

 eigenvalue-minimisations  :    16
 total energy-change (2. order) :-0.3268770E-02  (-0.8238662E-04)
 number of electron       1.9999996 magnetization 
 augmentation part        0.0416127 magnetization 

 Broyden mixing:
  rms(total) = 0.41045E-02    rms(broyden)= 0.41033E-02
  rms(prec ) = 0.58132E-02
  weight for this iteration     100.00

 eigenvalues of (default mixing * dielectric matrix)
  average eigenvalue GAMMA=   2.2246
  4.1835  2.7131  2.2686  0.9788  0.9788

 Free energy of the ion-electron system (eV)
  ---------------------------------------------------
  alpha Z        PSCENC =         0.01195684
  Ewald energy   TEWEN  =        10.66300753
  -Hartree energ DENC   =       -27.04750247
  -exchange      EXHF   =         0.00000000
  -V(xc)+E(xc)   XCENC  =         5.32897234
  PAW double counting   =         8.91465189       -8.96582000
  entropy T*S    EENTRO =        -0.00000000
  eigenvalues    EBANDS =       -20.61849292
  atomic energy  EATOM  =        24.95726533
  Solvation  Ediel_sol  =         0.00000000
  ---------------------------------------------------
  free energy    TOTEN  =        -6.75596146 eV

  energy without entropy =       -6.75596146  energy(sigma->0) =       -6.75596146


--------------------------------------------------------------------------------------------------------




--------------------------------------- Iteration      1(  11)  ---------------------------------------


    POTLOK:  cpu time    0.0647: real time    0.0649
    SETDIJ:  cpu time    0.0011: real time    0.0011
    EDDIAG:  cpu time    0.0064: real time    0.0064
  RMM-DIIS:  cpu time    0.0231: real time    0.0232
    ORTHCH:  cpu time    0.0006: real time    0.0006
       DOS:  cpu time    0.0001: real time    0.0001
    CHARGE:  cpu time    0.0218: real time    0.0219
    MIXING:  cpu time    0.0031: real time    0.0031
    --------------------------------------------
      LOOP:  cpu time    0.1209: real time    0.1213

 eigenvalue-minimisations  :    16
 total energy-change (2. order) :-0.7277698E-03  (-0.1084683E-04)
 number of electron       1.9999996 magnetization 
 augmentation part        0.0416429 magnetization 

 Broyden mixing:
  rms(total) = 0.89740E-03    rms(broyden)= 0.89737E-03
  rms(prec ) = 0.23262E-02
  weight for this iteration     100.00

 eigenvalues of (default mixing * dielectric matrix)
  average eigenvalue GAMMA=   2.7209
  5.5867  3.8161  2.1934  2.7040  1.0282  0.9969

 Free energy of the ion-electron system (eV)
  ---------------------------------------------------
  alpha Z        PSCENC =         0.01195684
  Ewald energy   TEWEN  =        10.66300753
  -Hartree energ DENC   =       -26.98648634
  -exchange      EXHF   =         0.00000000
  -V(xc)+E(xc)   XCENC  =         5.31956744
  PAW double counting   =         8.80848261       -8.85911474
  entropy T*S    EENTRO =        -0.00000000
  eigenvalues    EBANDS =       -20.67136790
  atomic energy  EATOM  =        24.95726533
  Solvation  Ediel_sol  =         0.00000000
  ---------------------------------------------------
  free energy    TOTEN  =        -6.75668923 eV

  energy without entropy =       -6.75668923  energy(sigma->0) =       -6.75668923


--------------------------------------------------------------------------------------------------------




--------------------------------------- Iteration      1(  12)  ---------------------------------------


    POTLOK:  cpu time    0.0620: real time    0.0622
    SETDIJ:  cpu time    0.0011: real time    0.0011
    EDDIAG:  cpu time    0.0063: real time    0.0063
  RMM-DIIS:  cpu time    0.0223: real time    0.0224
    ORTHCH:  cpu time    0.0006: real time    0.0006
       DOS:  cpu time    0.0001: real time    0.0001
    CHARGE:  cpu time    0.0221: real time    0.0222
    MIXING:  cpu time    0.0033: real time    0.0033
    --------------------------------------------
      LOOP:  cpu time    0.1178: real time    0.1180

 eigenvalue-minimisations  :    16
 total energy-change (2. order) :-0.1679809E-02  (-0.2633817E-04)
 number of electron       1.9999996 magnetization 
 augmentation part        0.0416387 magnetization 

 Broyden mixing:
  rms(total) = 0.61841E-03    rms(broyden)= 0.61837E-03
  rms(prec ) = 0.90207E-03
  weight for this iteration     100.00

 eigenvalues of (default mixing * dielectric matrix)
  average eigenvalue GAMMA=   2.9380
  6.4174  1.0030  1.0460  4.0063  2.9477  2.9477  2.1979

 Free energy of the ion-electron system (eV)
  ---------------------------------------------------
  alpha Z        PSCENC =         0.01195684
  Ewald energy   TEWEN  =        10.66300753
  -Hartree energ DENC   =       -26.98450460
  -exchange      EXHF   =         0.00000000
  -V(xc)+E(xc)   XCENC  =         5.31759110
  PAW double counting   =         8.79430333       -8.84475438
  entropy T*S    EENTRO =        -0.00000000
  eigenvalues    EBANDS =       -20.67323418
  atomic energy  EATOM  =        24.95726533
  Solvation  Ediel_sol  =         0.00000000
  ---------------------------------------------------
  free energy    TOTEN  =        -6.75836904 eV

  energy without entropy =       -6.75836904  energy(sigma->0) =       -6.75836904


--------------------------------------------------------------------------------------------------------




--------------------------------------- Iteration      1(  13)  ---------------------------------------


    POTLOK:  cpu time    0.0636: real time    0.0638
    SETDIJ:  cpu time    0.0011: real time    0.0011
    EDDIAG:  cpu time    0.0064: real time    0.0064
  RMM-DIIS:  cpu time    0.0211: real time    0.0212
    ORTHCH:  cpu time    0.0007: real time    0.0007
       DOS:  cpu time    0.0001: real time    0.0001
    CHARGE:  cpu time    0.0215: real time    0.0215
    MIXING:  cpu time    0.0035: real time    0.0035
    --------------------------------------------
      LOOP:  cpu time    0.1188: real time    0.1182

 eigenvalue-minimisations  :    16
 total energy-change (2. order) :-0.1326687E-03  (-0.6329799E-06)
 number of electron       1.9999996 magnetization 
 augmentation part        0.0416328 magnetization 

 Broyden mixing:
  rms(total) = 0.31155E-03    rms(broyden)= 0.31145E-03
  rms(prec ) = 0.45069E-03
  weight for this iteration     100.00

 eigenvalues of (default mixing * dielectric matrix)
  average eigenvalue GAMMA=   2.8002
  7.0201  4.3077  3.1793  2.6326  2.1517  0.9866  1.0616  1.0616

 Free energy of the ion-electron system (eV)
  ---------------------------------------------------
  alpha Z        PSCENC =         0.01195684
  Ewald energy   TEWEN  =        10.66300753
  -Hartree energ DENC   =       -26.99399018
  -exchange      EXHF   =         0.00000000
  -V(xc)+E(xc)   XCENC  =         5.31866867
  PAW double counting   =         8.81613663       -8.86673513
  entropy T*S    EENTRO =        -0.00000000
  eigenvalues    EBANDS =       -20.66481139
  atomic energy  EATOM  =        24.95726533
  Solvation  Ediel_sol  =         0.00000000
  ---------------------------------------------------
  free energy    TOTEN  =        -6.75850171 eV

  energy without entropy =       -6.75850171  energy(sigma->0) =       -6.75850171


--------------------------------------------------------------------------------------------------------




--------------------------------------- Iteration      1(  14)  ---------------------------------------


    POTLOK:  cpu time    0.0602: real time    0.0604
    SETDIJ:  cpu time    0.0011: real time    0.0011
    EDDIAG:  cpu time    0.0058: real time    0.0058
  RMM-DIIS:  cpu time    0.0274: real time    0.0275
    ORTHCH:  cpu time    0.0009: real time    0.0009
       DOS:  cpu time    0.0001: real time    0.0001
    CHARGE:  cpu time    0.0300: real time    0.0300
    MIXING:  cpu time    0.0050: real time    0.0051
    --------------------------------------------
      LOOP:  cpu time    0.1297: real time    0.1309

 eigenvalue-minimisations  :    16
 total energy-change (2. order) :-0.6036249E-04  (-0.3502237E-06)
 number of electron       1.9999996 magnetization 
 augmentation part        0.0416337 magnetization 

 Broyden mixing:
  rms(total) = 0.55061E-04    rms(broyden)= 0.54656E-04
  rms(prec ) = 0.99784E-04
  weight for this iteration     100.00

 eigenvalues of (default mixing * dielectric matrix)
  average eigenvalue GAMMA=   2.8920
  7.3675  4.5953  3.6894  2.7216  2.1464  2.4365  0.9808  1.0568  1.0336

 Free energy of the ion-electron system (eV)
  ---------------------------------------------------
  alpha Z        PSCENC =         0.01195684
  Ewald energy   TEWEN  =        10.66300753
  -Hartree energ DENC   =       -26.99192785
  -exchange      EXHF   =         0.00000000
  -V(xc)+E(xc)   XCENC  =         5.31826806
  PAW double counting   =         8.81008373       -8.86065889
  entropy T*S    EENTRO =        -0.00000000
  eigenvalues    EBANDS =       -20.66655682
  atomic energy  EATOM  =        24.95726533
  Solvation  Ediel_sol  =         0.00000000
  ---------------------------------------------------
  free energy    TOTEN  =        -6.75856207 eV

  energy without entropy =       -6.75856207  energy(sigma->0) =       -6.75856207


--------------------------------------------------------------------------------------------------------




--------------------------------------- Iteration      1(  15)  ---------------------------------------


    POTLOK:  cpu time    0.0687: real time    0.0690
    SETDIJ:  cpu time    0.0012: real time    0.0012
    EDDIAG:  cpu time    0.0083: real time    0.0083
  RMM-DIIS:  cpu time    0.0227: real time    0.0228
    ORTHCH:  cpu time    0.0006: real time    0.0006
       DOS:  cpu time    0.0001: real time    0.0001
    CHARGE:  cpu time    0.0222: real time    0.0222
    MIXING:  cpu time    0.0042: real time    0.0043
    --------------------------------------------
      LOOP:  cpu time    0.1280: real time    0.1285

 eigenvalue-minimisations  :    16
 total energy-change (2. order) :-0.9150121E-05  (-0.6639610E-07)
 number of electron       1.9999996 magnetization 
 augmentation part        0.0416342 magnetization 

 Broyden mixing:
  rms(total) = 0.22006E-04    rms(broyden)= 0.20966E-04
  rms(prec ) = 0.39630E-04
  weight for this iteration     100.00

 eigenvalues of (default mixing * dielectric matrix)
  average eigenvalue GAMMA=   2.8223
  7.4403  4.8009  3.7293  3.1296  2.6100  2.1438  0.9814  1.0140  1.0563  1.3176

 Free energy of the ion-electron system (eV)
  ---------------------------------------------------
  alpha Z        PSCENC =         0.01195684
  Ewald energy   TEWEN  =        10.66300753
  -Hartree energ DENC   =       -26.99210477
  -exchange      EXHF   =         0.00000000
  -V(xc)+E(xc)   XCENC  =         5.31826602
  PAW double counting   =         8.80890741       -8.85946674
  entropy T*S    EENTRO =        -0.00000000
  eigenvalues    EBANDS =       -20.66640284
  atomic energy  EATOM  =        24.95726533
  Solvation  Ediel_sol  =         0.00000000
  ---------------------------------------------------
  free energy    TOTEN  =        -6.75857122 eV

  energy without entropy =       -6.75857122  energy(sigma->0) =       -6.75857122


--------------------------------------------------------------------------------------------------------




--------------------------------------- Iteration      1(  16)  ---------------------------------------


    POTLOK:  cpu time    0.0757: real time    0.0760
    SETDIJ:  cpu time    0.0012: real time    0.0012
    EDDIAG:  cpu time    0.0077: real time    0.0078
  RMM-DIIS:  cpu time    0.0296: real time    0.0297
    ORTHCH:  cpu time    0.0010: real time    0.0010
       DOS:  cpu time    0.0001: real time    0.0001
    CHARGE:  cpu time    0.0298: real time    0.0299
    MIXING:  cpu time    0.0052: real time    0.0053
    --------------------------------------------
      LOOP:  cpu time    0.1504: real time    0.1509

 eigenvalue-minimisations  :    15
 total energy-change (2. order) :-0.1051148E-05  (-0.9029414E-08)
 number of electron       1.9999996 magnetization 
 augmentation part        0.0416344 magnetization 

 Broyden mixing:
  rms(total) = 0.12424E-04    rms(broyden)= 0.10488E-04
  rms(prec ) = 0.21434E-04
  weight for this iteration     100.00
  WARNING: grid for Broyden might be to small

 eigenvalues of (default mixing * dielectric matrix)
  average eigenvalue GAMMA=   2.8879
  7.5004  4.9553  4.2406  3.3682  2.1434  2.8734  2.5998  0.9815  0.9970  1.0537
  1.0537

 Free energy of the ion-electron system (eV)
  ---------------------------------------------------
  alpha Z        PSCENC =         0.01195684
  Ewald energy   TEWEN  =        10.66300753
  -Hartree energ DENC   =       -26.99179286
  -exchange      EXHF   =         0.00000000
  -V(xc)+E(xc)   XCENC  =         5.31822263
  PAW double counting   =         8.80927736       -8.85983907
  entropy T*S    EENTRO =        -0.00000000
  eigenvalues    EBANDS =       -20.66667002
  atomic energy  EATOM  =        24.95726533
  Solvation  Ediel_sol  =         0.00000000
  ---------------------------------------------------
  free energy    TOTEN  =        -6.75857227 eV

  energy without entropy =       -6.75857227  energy(sigma->0) =       -6.75857227


--------------------------------------------------------------------------------------------------------




--------------------------------------- Iteration      1(  17)  ---------------------------------------


    POTLOK:  cpu time    0.0780: real time    0.0783
    SETDIJ:  cpu time    0.0013: real time    0.0013
    EDDIAG:  cpu time    0.0053: real time    0.0053
  RMM-DIIS:  cpu time    0.0199: real time    0.0200
    ORTHCH:  cpu time    0.0006: real time    0.0006
       DOS:  cpu time    0.0001: real time    0.0001
    --------------------------------------------
      LOOP:  cpu time    0.1051: real time    0.1055

 eigenvalue-minimisations  :    15
 total energy-change (2. order) :-0.5064090E-06  (-0.4055067E-08)
 number of electron       1.9999996 magnetization 
 augmentation part        0.0416344 magnetization 

 Free energy of the ion-electron system (eV)
  ---------------------------------------------------
  alpha Z        PSCENC =         0.01195684
  Ewald energy   TEWEN  =        10.66300753
  -Hartree energ DENC   =       -26.99170831
  -exchange      EXHF   =         0.00000000
  -V(xc)+E(xc)   XCENC  =         5.31821499
  PAW double counting   =         8.80884836       -8.85940997
  entropy T*S    EENTRO =        -0.00000000
  eigenvalues    EBANDS =       -20.66674755
  atomic energy  EATOM  =        24.95726533
  Solvation  Ediel_sol  =         0.00000000
  ---------------------------------------------------
  free energy    TOTEN  =        -6.75857278 eV

  energy without entropy =       -6.75857278  energy(sigma->0) =       -6.75857278


--------------------------------------------------------------------------------------------------------




 average (electrostatic) potential at core
  the test charge radii are     0.5201
  (the norm of the test charge is              1.0000)
       1 -41.6266       2 -41.6272
 
 
 
 E-fermi : -10.2625     XC(G=0):  -0.4570     alpha+bet : -0.0678


 k-point     1 :       0.0000    0.0000    0.0000
  band No.  band energies     occupation 
      1     -10.3334      2.00000
      2      -0.1913      0.00000
      3       0.4094      0.00000
      4       1.0212      0.00000
      5       1.3294      0.00000
      6       1.6224      0.00000
      7       1.6402      0.00000
      8       1.6512      0.00000


--------------------------------------------------------------------------------------------------------


 soft charge-density along one line, spin component           1
         0         1         2         3         4         5         6         7         8         9
 total charge-density along one line
 
 pseudopotential strength for first ion, spin component:           1
 -2.344  -0.011  -0.002   0.000  -0.000
 -0.011   0.049  -0.002   0.000  -0.000
 -0.002  -0.002  -0.334   0.000  -0.000
  0.000   0.000   0.000  -0.341   0.000
 -0.000  -0.000  -0.000   0.000  -0.341
 total augmentation occupancy for first ion, spin component:           1
  1.673  -0.479   0.283   0.000   0.000
 -0.479   0.137  -0.081   0.000  -0.000
  0.283  -0.081   0.048   0.000   0.000
  0.000   0.000   0.000   0.000   0.000
  0.000  -0.000   0.000   0.000   0.000


------------------------ aborting loop because EDIFF is reached ----------------------------------------


    CHARGE:  cpu time    0.0211: real time    0.0211
    FORLOC:  cpu time    0.0030: real time    0.0030
    FORNL :  cpu time    0.0071: real time    0.0071
    STRESS:  cpu time    0.0237: real time    0.0238
    FORHAR:  cpu time    0.0165: real time    0.0165
    MIXING:  cpu time    0.0041: real time    0.0042
    OFIELD:  cpu time    0.0000: real time    0.0000

  DFT-D2 method for vdW energy calculation
  -------------------------------------------------------------------

  Parameters of vdW forcefield:
         C6(Jnm^6/mol)     R0(A)
   -----------------------------
   H        0.140          1.001

  IVDW =   1
  VDW_RADIUS =    30.000 A
  VDW_S6 =     0.750
  VDW_SR =     1.000
  VDW_D =    20.000
  LVDW_EWALD = F

  Number of pair interactions contributing to vdW energy:     433
  Edisp (eV):   -0.00005
    FORVDW:  cpu time    0.0173: real time    0.0179

  FORCE on cell =-STRESS in cart. coord.  units (eV):
  Direction    XX          YY          ZZ          XY          YZ          ZX
  --------------------------------------------------------------------------------------
  Alpha Z     0.01196     0.01196     0.01196
  Ewald      -3.32825    16.07861    -2.08735    -0.00000    -0.00000    -0.00000
  Hartree     7.85801    10.06660     9.06728    -0.00000    -0.00000     0.00000
  E(xc)      -5.99473    -5.77502    -5.99474     0.00000    -0.00000    -0.00000
  Local     -14.46434   -27.96679   -16.91505    -0.00001     0.00000     0.00000
  n-local    -5.44453    -6.41881    -5.44501    -0.00001    -0.00019     0.00000
  augment     0.27398     0.20004     0.27421     0.00001    -0.00000    -0.00000
  Kinetic    20.96659    13.88056    20.96606    -0.00002    -0.00000     0.00000
  Fock        0.00000     0.00000     0.00000     0.00000     0.00000     0.00000
  vdW        -0.00004    -0.00001    -0.00008     0.00000     0.00000     0.00000
  -------------------------------------------------------------------------------------
  Total      -0.12135     0.07713    -0.12271     0.00000     0.00000     0.00000
  in kB      -0.23857     0.15162    -0.24124     0.00000     0.00000     0.00000
  external pressure =       -0.11 kB  Pullay stress =        0.00 kB


 VOLUME and BASIS-vectors are now :
 -----------------------------------------------------------------------------
  energy-cutoff  :      400.00
  volume of cell :      815.00
      direct lattice vectors                 reciprocal lattice vectors
    10.547599792  0.000000000  0.000000000     0.094808299  0.054737597  0.000000000
    -5.273799896  9.134489369  0.000000000     0.000000000  0.109475194  0.000000000
     0.000000000  0.000000000  8.458999634     0.000000000  0.000000000  0.118217288

  length of vectors
    10.547599792 10.547599792  8.458999634     0.109475194  0.109475194  0.118217288


 FORCES acting on ions
    electron-ion (+dipol)            ewald-force                    non-local-force                 convergence-correction
 -----------------------------------------------------------------------------------------------
   0.204E-05 0.206E+02 -.124E-04   0.450E-11 -.261E+02 -.114E-17   0.283E-10 0.517E+01 0.000E+00   -.638E-08 -.412E-04 0.210E-09
   -.290E-05 -.206E+02 -.172E-04   -.450E-11 0.261E+02 0.372E-17   -.283E-10 -.517E+01 0.000E+00   0.637E-08 0.412E-04 0.500E-09
 -----------------------------------------------------------------------------------------------
   -.857E-06 0.738E-05 -.296E-04   0.399E-18 0.000E+00 0.258E-17   0.000E+00 0.888E-15 0.000E+00   -.170E-10 -.702E-10 0.710E-09
 
 
 POSITION                                       TOTAL-FORCE (eV/Angst)
 -----------------------------------------------------------------------------------
      0.00005      6.87000      7.91526        -0.000000     -0.309551      0.000000
      0.00005      7.61204      7.91526         0.000000      0.309551      0.000000
 -----------------------------------------------------------------------------------
    total drift:                               -0.000001      0.000007     -0.000030


--------------------------------------------------------------------------------------------------------



  FREE ENERGIE OF THE ION-ELECTRON SYSTEM (eV)
  ---------------------------------------------------
  free  energy   TOTEN  =        -6.75862288 eV

  energy  without entropy=       -6.75862288  energy(sigma->0) =       -6.75862288
 


--------------------------------------------------------------------------------------------------------


    POTLOK:  cpu time    0.0701: real time    0.0702


--------------------------------------------------------------------------------------------------------


 stress matrix after NEB project (eV)
     -0.12135      0.00000      0.00000
      0.00000      0.07713      0.00000
      0.00000      0.00000     -0.12271
  FORCES: max atom, RMS     0.309551    0.309551
  FORCE total and by dimension    0.437771    0.309551
  Stress total and by dimension    0.189034    0.122714
 Finite differences:
   Step               POTIM =   2.000000000000000E-002
   Degrees of freedom DOF   =            6
  LATTYP: Found a hexagonal cell.
 ALAT       =    10.5475997925
 C/A-ratio  =     0.8019833706
  
  Lattice vectors:
  
 A1 = (  10.5475997925,   0.0000000000,   0.0000000000)
 A2 = (  -5.2737998962,   9.1344893692,   0.0000000000)
 A3 = (   0.0000000000,   0.0000000000,   8.4589996338)


Analysis of symmetry for initial positions (statically):
=====================================================================
 Subroutine PRICEL returns:
 Original cell was already a primitive cell.
 

 Routine SETGRP: Setting up the symmetry group for a 
 hexagonal supercell.


 Subroutine GETGRP returns: Found  4 space group operations
 (whereof  1 operations were pure point group operations)
 out of a pool of 24 trial point group operations.


The static configuration has the point symmetry C_1 .
 The point group associated with its full space group is C_2h.


Analysis of symmetry for dynamics (positions and initial velocities):
=====================================================================
 Subroutine PRICEL returns:
 Original cell was already a primitive cell.
 

 Routine SETGRP: Setting up the symmetry group for a 
 hexagonal supercell.


 Subroutine GETGRP returns: Found  4 space group operations
 (whereof  1 operations were pure point group operations)
 out of a pool of 24 trial point group operations.


The dynamic configuration has the point symmetry C_1 .
 The point group associated with its full space group is C_2h.


Analysis of constrained symmetry for selective dynamics:
=====================================================================
 Subroutine PRICEL returns:
 Original cell was already a primitive cell.
 

 Routine SETGRP: Setting up the symmetry group for a 
 hexagonal supercell.


 Subroutine GETGRP returns: Found  4 space group operations
 (whereof  1 operations were pure point group operations)
 out of a pool of 24 trial point group operations.


The constrained configuration has the point symmetry C_1 .
 The point group associated with its full space group is C_2h.


 Subroutine INISYM returns: Found  4 space group operations
 (whereof  1 operations are pure point group operations),
 and found     1 'primitive' translations

 
 KPOINTS: K-POINTS                                

Automatic generation of k-mesh.
Space group operators:
 irot       det(A)        alpha          n_x          n_y          n_z        tau_x        tau_y        tau_z
    1     1.000000     0.000000     1.000000     0.000000     0.000000     0.000000     0.000000     0.000000
    2    -1.000000     0.000000     1.000000     0.000000     0.000000     0.794618     0.585425     0.871441
    3     1.000000   180.000000     0.000000     0.000000     1.000000     0.794618     0.585425     0.000000
    4    -1.000000   180.000000     0.000000     0.000000     1.000000     0.000000     0.000000     0.871441
 
 Subroutine IBZKPT returns following result:
 ===========================================
 
 Found      1 irreducible k-points:
 
 Following reciprocal coordinates:
            Coordinates               Weight
  0.000000  0.000000  0.000000      1.000000
 
 Following cartesian coordinates:
            Coordinates               Weight
  0.000000  0.000000  0.000000      1.000000
 
    WAVPRE:  cpu time    0.0325: real time    0.0343
    FEWALD:  cpu time    0.0003: real time    0.0003
    ORTHCH:  cpu time    0.0026: real time    0.0026
     LOOP+:  cpu time    1.9793: real time    1.9893


--------------------------------------- Iteration      2(   1)  ---------------------------------------


    POTLOK:  cpu time    0.0652: real time    0.0664
    SETDIJ:  cpu time    0.0011: real time    0.0011
     EDDAV:  cpu time    0.0226: real time    0.0227
       DOS:  cpu time    0.0001: real time    0.0001
    CHARGE:  cpu time    0.0206: real time    0.0206
    MIXING:  cpu time    0.0021: real time    0.0021
    --------------------------------------------
      LOOP:  cpu time    0.1117: real time    0.1129

 eigenvalue-minimisations  :    16
 total energy-change (2. order) :-0.1071847E-03  (-0.1422284E-01)
 number of electron       1.9999997 magnetization 
 augmentation part        0.0416065 magnetization 

  free energy =  -0.675867945961E+01  energy without entropy=  -0.675867945961E+01


--------------------------------------------------------------------------------------------------------




--------------------------------------- Iteration      2(   2)  ---------------------------------------


    POTLOK:  cpu time    0.0611: real time    0.0612
    SETDIJ:  cpu time    0.0010: real time    0.0010
    EDDIAG:  cpu time    0.0055: real time    0.0056
  RMM-DIIS:  cpu time    0.0191: real time    0.0192
    ORTHCH:  cpu time    0.0008: real time    0.0008
       DOS:  cpu time    0.0001: real time    0.0001
    CHARGE:  cpu time    0.0202: real time    0.0202
    MIXING:  cpu time    0.0022: real time    0.0022
    --------------------------------------------
      LOOP:  cpu time    0.1100: real time    0.1103

 eigenvalue-minimisations  :    16
 total energy-change (2. order) : 0.2098599E-04  (-0.3999348E-04)
 number of electron       1.9999997 magnetization 
 augmentation part        0.0416177 magnetization 

 eigenvalues of (default mixing * dielectric matrix)
  average eigenvalue GAMMA=   2.6074
  2.6074

  free energy =  -0.675865847362E+01  energy without entropy=  -0.675865847362E+01


--------------------------------------------------------------------------------------------------------




--------------------------------------- Iteration      2(   3)  ---------------------------------------


    POTLOK:  cpu time    0.0601: real time    0.0603
    SETDIJ:  cpu time    0.0011: real time    0.0011
    EDDIAG:  cpu time    0.0054: real time    0.0054
  RMM-DIIS:  cpu time    0.0197: real time    0.0198
    ORTHCH:  cpu time    0.0005: real time    0.0005
       DOS:  cpu time    0.0001: real time    0.0001
    CHARGE:  cpu time    0.0202: real time    0.0202
    MIXING:  cpu time    0.0023: real time    0.0023
    --------------------------------------------
      LOOP:  cpu time    0.1094: real time    0.1097

 eigenvalue-minimisations  :    16
 total energy-change (2. order) : 0.4534070E-05  (-0.9241872E-05)
 number of electron       1.9999997 magnetization 
 augmentation part        0.0416201 magnetization 

 eigenvalues of (default mixing * dielectric matrix)
  average eigenvalue GAMMA=   1.8819
  1.1453  2.6185

  free energy =  -0.675865393955E+01  energy without entropy=  -0.675865393955E+01


--------------------------------------------------------------------------------------------------------




--------------------------------------- Iteration      2(   4)  ---------------------------------------


    POTLOK:  cpu time    0.0604: real time    0.0607
    SETDIJ:  cpu time    0.0011: real time    0.0010
    EDDIAG:  cpu time    0.0055: real time    0.0055
  RMM-DIIS:  cpu time    0.0195: real time    0.0195
    ORTHCH:  cpu time    0.0006: real time    0.0005
       DOS:  cpu time    0.0001: real time    0.0001
    CHARGE:  cpu time    0.0202: real time    0.0204
    MIXING:  cpu time    0.0025: real time    0.0029
    --------------------------------------------
      LOOP:  cpu time    0.1098: real time    0.1107

 eigenvalue-minimisations  :    15
 total energy-change (2. order) :-0.3277449E-05  (-0.5041794E-07)
 number of electron       1.9999997 magnetization 
 augmentation part        0.0416201 magnetization 

 eigenvalues of (default mixing * dielectric matrix)
  average eigenvalue GAMMA=   2.1921
  1.0029  2.5800  2.9935

  free energy =  -0.675865721700E+01  energy without entropy=  -0.675865721700E+01


--------------------------------------------------------------------------------------------------------




--------------------------------------- Iteration      2(   5)  ---------------------------------------


    POTLOK:  cpu time    0.0608: real time    0.0610
    SETDIJ:  cpu time    0.0010: real time    0.0010
    EDDIAG:  cpu time    0.0056: real time    0.0056
  RMM-DIIS:  cpu time    0.0195: real time    0.0195
    ORTHCH:  cpu time    0.0005: real time    0.0005
       DOS:  cpu time    0.0001: real time    0.0001
    CHARGE:  cpu time    0.0201: real time    0.0202
    MIXING:  cpu time    0.0026: real time    0.0026
    --------------------------------------------
      LOOP:  cpu time    0.1102: real time    0.1106

 eigenvalue-minimisations  :    15
 total energy-change (2. order) :-0.3465176E-05  (-0.5589024E-07)
 number of electron       1.9999997 magnetization 
 augmentation part        0.0416199 magnetization 

 eigenvalues of (default mixing * dielectric matrix)
  average eigenvalue GAMMA=   2.1512
  0.9925  2.9577  2.6160  2.0384

  free energy =  -0.675866068218E+01  energy without entropy=  -0.675866068218E+01


--------------------------------------------------------------------------------------------------------




--------------------------------------- Iteration      2(   6)  ---------------------------------------


    POTLOK:  cpu time    0.0609: real time    0.0611
    SETDIJ:  cpu time    0.0010: real time    0.0010
    EDDIAG:  cpu time    0.0054: real time    0.0054
  RMM-DIIS:  cpu time    0.0196: real time    0.0196
    ORTHCH:  cpu time    0.0006: real time    0.0006
       DOS:  cpu time    0.0001: real time    0.0001
    CHARGE:  cpu time    0.0203: real time    0.0203
    MIXING:  cpu time    0.0027: real time    0.0027
    --------------------------------------------
      LOOP:  cpu time    0.1104: real time    0.1107

 eigenvalue-minimisations  :    15
 total energy-change (2. order) :-0.3087826E-05  (-0.1299827E-07)
 number of electron       1.9999997 magnetization 
 augmentation part        0.0416200 magnetization 

 eigenvalues of (default mixing * dielectric matrix)
  average eigenvalue GAMMA=   2.2220
  3.7681  2.5730  2.8095  1.0085  0.9511

  free energy =  -0.675866377000E+01  energy without entropy=  -0.675866377000E+01


--------------------------------------------------------------------------------------------------------




--------------------------------------- Iteration      2(   7)  ---------------------------------------


    POTLOK:  cpu time    0.0614: real time    0.0616
    SETDIJ:  cpu time    0.0010: real time    0.0010
    EDDIAG:  cpu time    0.0054: real time    0.0054
  RMM-DIIS:  cpu time    0.0197: real time    0.0197
    ORTHCH:  cpu time    0.0006: real time    0.0006
       DOS:  cpu time    0.0001: real time    0.0001
    CHARGE:  cpu time    0.0204: real time    0.0204
    MIXING:  cpu time    0.0029: real time    0.0029
    --------------------------------------------
      LOOP:  cpu time    0.1114: real time    0.1117

 eigenvalue-minimisations  :    15
 total energy-change (2. order) :-0.1286925E-05  (-0.3643127E-08)
 number of electron       1.9999997 magnetization 
 augmentation part        0.0416200 magnetization 

 eigenvalues of (default mixing * dielectric matrix)
  average eigenvalue GAMMA=   2.6406
  5.3895  0.9950  0.9950  3.1648  2.7328  2.5665

  free energy =  -0.675866505693E+01  energy without entropy=  -0.675866505693E+01


--------------------------------------------------------------------------------------------------------




--------------------------------------- Iteration      2(   8)  ---------------------------------------


    POTLOK:  cpu time    0.0623: real time    0.0624
    SETDIJ:  cpu time    0.0010: real time    0.0010
    EDDIAG:  cpu time    0.0053: real time    0.0054
  RMM-DIIS:  cpu time    0.0193: real time    0.0194
    ORTHCH:  cpu time    0.0005: real time    0.0005
       DOS:  cpu time    0.0001: real time    0.0001
    CHARGE:  cpu time    0.0201: real time    0.0202
    MIXING:  cpu time    0.0031: real time    0.0031
    --------------------------------------------
      LOOP:  cpu time    0.1118: real time    0.1121

 eigenvalue-minimisations  :    15
 total energy-change (2. order) :-0.1553838E-05  (-0.3145342E-08)
 number of electron       1.9999997 magnetization 
 augmentation part        0.0416200 magnetization 

 eigenvalues of (default mixing * dielectric matrix)
  average eigenvalue GAMMA=   2.4352
  5.4937  3.2134  2.7248  2.5545  1.0164  1.0164  1.0276

  free energy =  -0.675866661077E+01  energy without entropy=  -0.675866661077E+01


--------------------------------------------------------------------------------------------------------




--------------------------------------- Iteration      2(   9)  ---------------------------------------


    POTLOK:  cpu time    0.0629: real time    0.0631
    SETDIJ:  cpu time    0.0011: real time    0.0011
    EDDIAG:  cpu time    0.0053: real time    0.0053
  RMM-DIIS:  cpu time    0.0188: real time    0.0189
    ORTHCH:  cpu time    0.0008: real time    0.0008
       DOS:  cpu time    0.0001: real time    0.0001
    --------------------------------------------
      LOOP:  cpu time    0.0889: real time    0.0892

 eigenvalue-minimisations  :    14
 total energy-change (2. order) :-0.2233050E-06  ( 0.0000000E+00)
 number of electron       1.9999997 magnetization 
 augmentation part        0.0416200 magnetization 

  free energy =  -0.675866683407E+01  energy without entropy=  -0.675866683407E+01


--------------------------------------------------------------------------------------------------------




------------------------ aborting loop because EDIFF is reached ----------------------------------------


    CHARGE:  cpu time    0.0193: real time    0.0202
    FORLOC:  cpu time    0.0030: real time    0.0030
    FORNL :  cpu time    0.0071: real time    0.0071
    STRESS:  cpu time    0.0238: real time    0.0239
    FORHAR:  cpu time    0.0162: real time    0.0163
    MIXING:  cpu time    0.0033: real time    0.0033
    OFIELD:  cpu time    0.0000: real time    0.0000

  Number of pair interactions contributing to vdW energy:     433
  Edisp (eV):   -0.00005
    FORVDW:  cpu time    0.0001: real time    0.0001

  FORCE on cell =-STRESS in cart. coord.  units (eV):
  Direction    XX          YY          ZZ          XY          YZ          ZX
  --------------------------------------------------------------------------------------
  Alpha Z     0.01196     0.01196     0.01196
  Ewald      -3.31416    16.05750    -2.08736    -0.52254    -0.00000    -0.00000
  Hartree     7.85771    10.06386     9.06536    -0.05952    -0.00000    -0.00000
  E(xc)      -5.99386    -5.77444    -5.99403    -0.00591    -0.00000    -0.00000
  Local     -14.47077   -27.95481   -16.91165     0.36374     0.00000     0.00000
  n-local    -5.44352    -6.41545    -5.44334     0.02628    -0.00019    -0.00005
  augment     0.27377     0.20009     0.27414     0.00198    -0.00002     0.00003
  Kinetic    20.95773    13.88123    20.96230     0.19085     0.00000     0.00000
  Fock        0.00000     0.00000     0.00000     0.00000     0.00000     0.00000
  vdW        -0.00004    -0.00001    -0.00008    -0.00000     0.00000     0.00000
  -------------------------------------------------------------------------------------
  Total      -0.12118     0.06991    -0.12271    -0.00513     0.00000     0.00000
  in kB      -0.23822     0.13743    -0.24122    -0.01008     0.00000     0.00000
  external pressure =       -0.11 kB  Pullay stress =        0.00 kB



--------------------------------------------------------------------------------------------------------



  FREE ENERGIE OF THE ION-ELECTRON SYSTEM (eV)
  ---------------------------------------------------
  free  energy   TOTEN  =        -6.75871695 eV

  energy  without entropy=       -6.75871695  energy(sigma->0) =       -6.75871695
 
 d Force = 0.8399445E-04[ 0.168E-03,-0.339E-13]  d Energy = 0.9406430E-04-0.101E-04
 d Force = 0.7029546E-02[ 0.141E-01, 0.901E-13]  d Ewald  = 0.7033381E-02-0.384E-05


--------------------------------------------------------------------------------------------------------


    POTLOK:  cpu time    0.0651: real time    0.0652


--------------------------------------------------------------------------------------------------------


 stress matrix after NEB project (eV)
     -0.12118     -0.00513      0.00000
     -0.00513      0.06991      0.00000
      0.00000      0.00000     -0.12271
  FORCES: max atom, RMS     0.299930    0.299930
  FORCE total and by dimension    0.424165    0.299812
  Stress total and by dimension    0.186227    0.122705
 Finite differences progress:
  Degree of freedom:   1/  6
  Displacement:        1/  2
  Total:               1/ 12
  LATTYP: Found a hexagonal cell.
 ALAT       =    10.5475997925
 C/A-ratio  =     0.8019833706
  
  Lattice vectors:
  
 A1 = (  10.5475997925,   0.0000000000,   0.0000000000)
 A2 = (  -5.2737998962,   9.1344893692,   0.0000000000)
 A3 = (   0.0000000000,   0.0000000000,   8.4589996338)


Analysis of symmetry for initial positions (statically):
=====================================================================
 Subroutine PRICEL returns:
 Original cell was already a primitive cell.
 

 Routine SETGRP: Setting up the symmetry group for a 
 hexagonal supercell.


 Subroutine GETGRP returns: Found  4 space group operations
 (whereof  1 operations were pure point group operations)
 out of a pool of 24 trial point group operations.


The static configuration has the point symmetry C_1 .
 The point group associated with its full space group is C_2h.


Analysis of symmetry for dynamics (positions and initial velocities):
=====================================================================
 Subroutine PRICEL returns:
 Original cell was already a primitive cell.
 

 Routine SETGRP: Setting up the symmetry group for a 
 hexagonal supercell.


 Subroutine GETGRP returns: Found  4 space group operations
 (whereof  1 operations were pure point group operations)
 out of a pool of 24 trial point group operations.


The dynamic configuration has the point symmetry C_1 .
 The point group associated with its full space group is C_2h.


Analysis of constrained symmetry for selective dynamics:
=====================================================================
 Subroutine PRICEL returns:
 Original cell was already a primitive cell.
 

 Routine SETGRP: Setting up the symmetry group for a 
 hexagonal supercell.


 Subroutine GETGRP returns: Found  4 space group operations
 (whereof  1 operations were pure point group operations)
 out of a pool of 24 trial point group operations.


The constrained configuration has the point symmetry C_1 .
 The point group associated with its full space group is C_2h.


 Subroutine INISYM returns: Found  4 space group operations
 (whereof  1 operations are pure point group operations),
 and found     1 'primitive' translations

 
 KPOINTS: K-POINTS                                

Automatic generation of k-mesh.
Space group operators:
 irot       det(A)        alpha          n_x          n_y          n_z        tau_x        tau_y        tau_z
    1     1.000000     0.000000     1.000000     0.000000     0.000000     0.000000     0.000000     0.000000
    2    -1.000000     0.000000     1.000000     0.000000     0.000000     0.790826     0.585425     0.871441
    3     1.000000   180.000000     0.000000     0.000000     1.000000     0.790826     0.585425     0.000000
    4    -1.000000   180.000000     0.000000     0.000000     1.000000     0.000000     0.000000     0.871441
 
 Subroutine IBZKPT returns following result:
 ===========================================
 
 Found      1 irreducible k-points:
 
 Following reciprocal coordinates:
            Coordinates               Weight
  0.000000  0.000000  0.000000      1.000000
 
 Following cartesian coordinates:
            Coordinates               Weight
  0.000000  0.000000  0.000000      1.000000
 
    WAVPRE:  cpu time    0.0333: real time    0.0353
    FEWALD:  cpu time    0.0003: real time    0.0003
    ORTHCH:  cpu time    0.0026: real time    0.0027
     LOOP+:  cpu time    1.1504: real time    1.1584


--------------------------------------- Iteration      3(   1)  ---------------------------------------


    POTLOK:  cpu time    0.0659: real time    0.0667
    SETDIJ:  cpu time    0.0010: real time    0.0010
     EDDAV:  cpu time    0.0224: real time    0.0224
       DOS:  cpu time    0.0001: real time    0.0001
    CHARGE:  cpu time    0.0201: real time    0.0201
    MIXING:  cpu time    0.0021: real time    0.0021
    --------------------------------------------
      LOOP:  cpu time    0.1116: real time    0.1125

 eigenvalue-minimisations  :    16
 total energy-change (2. order) :-0.6863805E-04  (-0.5680397E-01)
 number of electron       1.9999997 magnetization 
 augmentation part        0.0415751 magnetization 

  free energy =  -0.675873524881E+01  energy without entropy=  -0.675873524881E+01


--------------------------------------------------------------------------------------------------------




--------------------------------------- Iteration      3(   2)  ---------------------------------------


    POTLOK:  cpu time    0.0615: real time    0.0617
    SETDIJ:  cpu time    0.0010: real time    0.0010
    EDDIAG:  cpu time    0.0054: real time    0.0054
  RMM-DIIS:  cpu time    0.0193: real time    0.0193
    ORTHCH:  cpu time    0.0006: real time    0.0006
       DOS:  cpu time    0.0001: real time    0.0001
    CHARGE:  cpu time    0.0201: real time    0.0201
    MIXING:  cpu time    0.0022: real time    0.0022
    --------------------------------------------
      LOOP:  cpu time    0.1101: real time    0.1104

 eigenvalue-minimisations  :    16
 total energy-change (2. order) : 0.7425264E-04  (-0.1614069E-03)
 number of electron       1.9999997 magnetization 
 augmentation part        0.0416169 magnetization 

 eigenvalues of (default mixing * dielectric matrix)
  average eigenvalue GAMMA=   2.5942
  2.5942

  free energy =  -0.675866099617E+01  energy without entropy=  -0.675866099617E+01


--------------------------------------------------------------------------------------------------------




--------------------------------------- Iteration      3(   3)  ---------------------------------------


    POTLOK:  cpu time    0.0599: real time    0.0602
    SETDIJ:  cpu time    0.0011: real time    0.0010
    EDDIAG:  cpu time    0.0054: real time    0.0054
  RMM-DIIS:  cpu time    0.0196: real time    0.0196
    ORTHCH:  cpu time    0.0006: real time    0.0006
       DOS:  cpu time    0.0001: real time    0.0001
    CHARGE:  cpu time    0.0201: real time    0.0201
    MIXING:  cpu time    0.0023: real time    0.0023
    --------------------------------------------
      LOOP:  cpu time    0.1090: real time    0.1093

 eigenvalue-minimisations  :    16
 total energy-change (2. order) : 0.3929396E-04  (-0.3625439E-04)
 number of electron       1.9999997 magnetization 
 augmentation part        0.0416195 magnetization 

[...]

 eigenvalue-minimisations  :    16
 total energy-change (2. order) :-0.5563082E-04  (-0.5678816E-01)
 number of electron       1.9999996 magnetization 
 augmentation part        0.0415776 magnetization 

  free energy =  -0.675871751813E+01  energy without entropy=  -0.675871751813E+01


--------------------------------------------------------------------------------------------------------




--------------------------------------- Iteration     13(   2)  ---------------------------------------


    POTLOK:  cpu time    0.0588: real time    0.0590
    SETDIJ:  cpu time    0.0010: real time    0.0010
    EDDIAG:  cpu time    0.0054: real time    0.0054
  RMM-DIIS:  cpu time    0.0193: real time    0.0194
    ORTHCH:  cpu time    0.0006: real time    0.0005
       DOS:  cpu time    0.0001: real time    0.0001
    CHARGE:  cpu time    0.0205: real time    0.0206
    MIXING:  cpu time    0.0022: real time    0.0022
    --------------------------------------------
      LOOP:  cpu time    0.1078: real time    0.1081

 eigenvalue-minimisations  :    16
 total energy-change (2. order) : 0.7465580E-04  (-0.1718780E-03)
 number of electron       1.9999995 magnetization 
 augmentation part        0.0416169 magnetization 

 eigenvalues of (default mixing * dielectric matrix)
  average eigenvalue GAMMA=   2.5977
  2.5977

  free energy =  -0.675864286234E+01  energy without entropy=  -0.675864286234E+01


--------------------------------------------------------------------------------------------------------




--------------------------------------- Iteration     13(   3)  ---------------------------------------


    POTLOK:  cpu time    0.0586: real time    0.0589
    SETDIJ:  cpu time    0.0011: real time    0.0011
    EDDIAG:  cpu time    0.0053: real time    0.0053
  RMM-DIIS:  cpu time    0.0195: real time    0.0196
    ORTHCH:  cpu time    0.0010: real time    0.0006
       DOS:  cpu time    0.0000: real time    0.0001
    CHARGE:  cpu time    0.0202: real time    0.0206
    MIXING:  cpu time    0.0023: real time    0.0023
    --------------------------------------------
      LOOP:  cpu time    0.1081: real time    0.1085

 eigenvalue-minimisations  :    16
 total energy-change (2. order) : 0.1918746E-04  (-0.3463032E-04)
 number of electron       1.9999995 magnetization 
 augmentation part        0.0416193 magnetization 

 eigenvalues of (default mixing * dielectric matrix)
  average eigenvalue GAMMA=   1.8357
  1.0523  2.6191

  free energy =  -0.675862367487E+01  energy without entropy=  -0.675862367487E+01


--------------------------------------------------------------------------------------------------------




--------------------------------------- Iteration     13(   4)  ---------------------------------------


    POTLOK:  cpu time    0.0590: real time    0.0592
    SETDIJ:  cpu time    0.0010: real time    0.0010
    EDDIAG:  cpu time    0.0053: real time    0.0054
  RMM-DIIS:  cpu time    0.0197: real time    0.0198
    ORTHCH:  cpu time    0.0005: real time    0.0005
       DOS:  cpu time    0.0001: real time    0.0001
    CHARGE:  cpu time    0.0204: real time    0.0205
    MIXING:  cpu time    0.0025: real time    0.0025
    --------------------------------------------
      LOOP:  cpu time    0.1085: real time    0.1089

 eigenvalue-minimisations  :    16
 total energy-change (2. order) :-0.1077727E-04  (-0.2201133E-06)
 number of electron       1.9999995 magnetization 
 augmentation part        0.0416197 magnetization 

 eigenvalues of (default mixing * dielectric matrix)
  average eigenvalue GAMMA=   2.1887
  0.9977  2.5753  2.9930

  free energy =  -0.675863445215E+01  energy without entropy=  -0.675863445215E+01


--------------------------------------------------------------------------------------------------------




--------------------------------------- Iteration     13(   5)  ---------------------------------------


    POTLOK:  cpu time    0.0596: real time    0.0598
    SETDIJ:  cpu time    0.0010: real time    0.0010
    EDDIAG:  cpu time    0.0054: real time    0.0055
  RMM-DIIS:  cpu time    0.0195: real time    0.0195
    ORTHCH:  cpu time    0.0005: real time    0.0005
       DOS:  cpu time    0.0001: real time    0.0001
    CHARGE:  cpu time    0.0206: real time    0.0206
    MIXING:  cpu time    0.0026: real time    0.0026
    --------------------------------------------
      LOOP:  cpu time    0.1094: real time    0.1097

 eigenvalue-minimisations  :    16
 total energy-change (2. order) :-0.1491939E-04  (-0.2747187E-06)
 number of electron       1.9999995 magnetization 
 augmentation part        0.0416198 magnetization 

 eigenvalues of (default mixing * dielectric matrix)
  average eigenvalue GAMMA=   1.9743
  2.9747  2.5984  0.9952  1.3288

  free energy =  -0.675864937154E+01  energy without entropy=  -0.675864937154E+01


--------------------------------------------------------------------------------------------------------




--------------------------------------- Iteration     13(   6)  ---------------------------------------


    POTLOK:  cpu time    0.0595: real time    0.0597
    SETDIJ:  cpu time    0.0011: real time    0.0011
    EDDIAG:  cpu time    0.0052: real time    0.0052
  RMM-DIIS:  cpu time    0.0184: real time    0.0185
    ORTHCH:  cpu time    0.0006: real time    0.0005
       DOS:  cpu time    0.0001: real time    0.0001
    CHARGE:  cpu time    0.0200: real time    0.0201
    MIXING:  cpu time    0.0027: real time    0.0027
    --------------------------------------------
      LOOP:  cpu time    0.1074: real time    0.1077

 eigenvalue-minimisations  :    15
 total energy-change (2. order) :-0.5892849E-05  (-0.3324557E-07)
 number of electron       1.9999995 magnetization 
 augmentation part        0.0416197 magnetization 

 eigenvalues of (default mixing * dielectric matrix)
  average eigenvalue GAMMA=   2.2316
  3.7816  2.5752  2.8201  0.9905  0.9905

  free energy =  -0.675865526438E+01  energy without entropy=  -0.675865526438E+01


--------------------------------------------------------------------------------------------------------




--------------------------------------- Iteration     13(   7)  ---------------------------------------


    POTLOK:  cpu time    0.0583: real time    0.0585
    SETDIJ:  cpu time    0.0010: real time    0.0010
    EDDIAG:  cpu time    0.0053: real time    0.0054
  RMM-DIIS:  cpu time    0.0182: real time    0.0183
    ORTHCH:  cpu time    0.0005: real time    0.0005
       DOS:  cpu time    0.0001: real time    0.0001
    CHARGE:  cpu time    0.0198: real time    0.0198
    MIXING:  cpu time    0.0028: real time    0.0028
    --------------------------------------------
      LOOP:  cpu time    0.1061: real time    0.1064

 eigenvalue-minimisations  :    15
 total energy-change (2. order) :-0.3583176E-05  (-0.3846396E-07)
 number of electron       1.9999995 magnetization 
 augmentation part        0.0416197 magnetization 

 eigenvalues of (default mixing * dielectric matrix)
  average eigenvalue GAMMA=   2.4275
  4.6315  0.9943  0.9943  2.8210  2.6116  2.5121

  free energy =  -0.675865884756E+01  energy without entropy=  -0.675865884756E+01


--------------------------------------------------------------------------------------------------------




--------------------------------------- Iteration     13(   8)  ---------------------------------------


    POTLOK:  cpu time    0.0581: real time    0.0583
    SETDIJ:  cpu time    0.0010: real time    0.0010
    EDDIAG:  cpu time    0.0051: real time    0.0052
  RMM-DIIS:  cpu time    0.0179: real time    0.0180
    ORTHCH:  cpu time    0.0005: real time    0.0005
       DOS:  cpu time    0.0001: real time    0.0001
    CHARGE:  cpu time    0.0197: real time    0.0197
    MIXING:  cpu time    0.0030: real time    0.0031
    --------------------------------------------
      LOOP:  cpu time    0.1056: real time    0.1058

 eigenvalue-minimisations  :    15
 total energy-change (2. order) :-0.1240781E-05  (-0.9059377E-08)
 number of electron       1.9999995 magnetization 
 augmentation part        0.0416197 magnetization 

 eigenvalues of (default mixing * dielectric matrix)
  average eigenvalue GAMMA=   2.3771
  4.9015  3.2886  2.7295  2.5646  0.9977  0.9977  1.1598

  free energy =  -0.675866008834E+01  energy without entropy=  -0.675866008834E+01


--------------------------------------------------------------------------------------------------------




--------------------------------------- Iteration     13(   9)  ---------------------------------------


    POTLOK:  cpu time    0.0583: real time    0.0584
    SETDIJ:  cpu time    0.0010: real time    0.0010
    EDDIAG:  cpu time    0.0051: real time    0.0051
  RMM-DIIS:  cpu time    0.0177: real time    0.0178
    ORTHCH:  cpu time    0.0008: real time    0.0008
       DOS:  cpu time    0.0001: real time    0.0001
    --------------------------------------------
      LOOP:  cpu time    0.0830: real time    0.0832

 eigenvalue-minimisations  :    14
 total energy-change (2. order) :-0.1884700E-06  ( 0.0000000E+00)
 number of electron       1.9999995 magnetization 
 augmentation part        0.0416197 magnetization 

  free energy =  -0.675866027681E+01  energy without entropy=  -0.675866027681E+01


--------------------------------------------------------------------------------------------------------




------------------------ aborting loop because EDIFF is reached ----------------------------------------


    CHARGE:  cpu time    0.0197: real time    0.0198
    FORLOC:  cpu time    0.0029: real time    0.0029
    FORNL :  cpu time    0.0067: real time    0.0068
    STRESS:  cpu time    0.0228: real time    0.0229
    FORHAR:  cpu time    0.0195: real time    0.0196
    MIXING:  cpu time    0.0038: real time    0.0038
    OFIELD:  cpu time    0.0000: real time    0.0000

  Number of pair interactions contributing to vdW energy:     433
  Edisp (eV):   -0.00005
    FORVDW:  cpu time    0.0001: real time    0.0001

  FORCE on cell =-STRESS in cart. coord.  units (eV):
  Direction    XX          YY          ZZ          XY          YZ          ZX
  --------------------------------------------------------------------------------------
  Alpha Z     0.01196     0.01196     0.01196
  Ewald      -3.32826    16.05748    -2.07324    -0.00000    -0.52061    -0.00000
  Hartree     7.85611    10.06386     9.06698    -0.00000    -0.05847    -0.00000
  E(xc)      -5.99402    -5.77444    -5.99387     0.00000    -0.00592     0.00000
  Local     -14.46097   -27.95482   -16.92148    -0.00001     0.36080     0.00000
  n-local    -5.44285    -6.41544    -5.44398    -0.00001     0.02607    -0.00000
  augment     0.27387     0.20011     0.27406     0.00001     0.00198    -0.00000
  Kinetic    20.96286    13.88122    20.95722    -0.00002     0.19088     0.00000
  Fock        0.00000     0.00000     0.00000     0.00000     0.00000     0.00000
  vdW        -0.00004    -0.00001    -0.00008     0.00000    -0.00000     0.00000
  -------------------------------------------------------------------------------------
  Total      -0.12135     0.06991    -0.12243     0.00000    -0.00526    -0.00000
  in kB      -0.23856     0.13744    -0.24069     0.00000    -0.01034    -0.00000
  external pressure =       -0.11 kB  Pullay stress =        0.00 kB



--------------------------------------------------------------------------------------------------------



  FREE ENERGIE OF THE ION-ELECTRON SYSTEM (eV)
  ---------------------------------------------------
  free  energy   TOTEN  =        -6.75871039 eV

  energy  without entropy=       -6.75871039  energy(sigma->0) =       -6.75871039
 
 d Force = 0.4135581E-05[ 0.340E-03,-0.331E-03]  d Energy =-0.2279033E-05 0.641E-05
 d Force =-0.1734723E-17[ 0.281E-01,-0.281E-01]  d Ewald  =-0.3552714E-14 0.355E-14


--------------------------------------------------------------------------------------------------------


    POTLOK:  cpu time    0.0602: real time    0.0604


--------------------------------------------------------------------------------------------------------


 stress matrix after NEB project (eV)
     -0.12135      0.00000     -0.00000
      0.00000      0.06991     -0.00526
     -0.00000     -0.00526     -0.12243
  FORCES: max atom, RMS     0.299905    0.299905
  FORCE total and by dimension    0.424130    0.299785
  Stress total and by dimension    0.186168    0.122432
 Finite differences progress:
  Degree of freedom:   6/  6
  Displacement:        2/  2
  Total:              12/ 12
 
 SECOND DERIVATIVES (NOT SYMMETRIZED)
 ------------------------------------
               1X          1Y          1Z          2X          2Y          2Z 
  1X     0.418518    0.000208    0.000000   -0.418518   -0.000208    0.000000
  1Y    -0.000000  -36.138510    0.000000    0.000000   36.138510    0.000000
  1Z     0.000000    0.001841    0.419666   -0.000000   -0.001841   -0.419666
  2X    -0.405063    0.000415    0.000000    0.405063   -0.000415    0.000000
  2Y     0.000000   36.145837    0.000000   -0.000000  -36.145837    0.000000
  2Z     0.000000    0.000066   -0.419465   -0.000000   -0.000066    0.419465
 
 
 Eigenvectors and eigenvalues of the dynamical matrix
 ----------------------------------------------------
 
 
   1 f  =  132.914649 THz   835.127370 2PiTHz 4433.555330 cm-1   549.691001 meV
             X         Y         Z           dx          dy          dz
      0.000053  6.870000  7.915258     0.000002   -0.707071    0.000018  
      0.000053  7.612044  7.915258     0.000004    0.707143    0.000001  
 
   2 f  =    0.115884 THz     0.728120 2PiTHz    3.865470 cm-1     0.479257 meV
             X         Y         Z           dx          dy          dz
      0.000053  6.870000  7.915258     0.701308   -0.000200   -0.000053  
      0.000053  7.612044  7.915258     0.712859   -0.000206   -0.000053  
 
   3 f  =    0.001663 THz     0.010452 2PiTHz    0.055488 cm-1     0.006880 meV
             X         Y         Z           dx          dy          dz
      0.000053  6.870000  7.915258     0.000003   -0.168413    0.686676  
      0.000053  7.612044  7.915258     0.000003   -0.168414    0.686841  
 
   4 f/i=    0.006948 THz     0.043656 2PiTHz    0.231765 cm-1     0.028735 meV
             X         Y         Z           dx          dy          dz
      0.000053  6.870000  7.915258    -0.000208   -0.686795   -0.168393  
      0.000053  7.612044  7.915258    -0.000211   -0.686721   -0.168433  
 
   5 f/i=   14.187904 THz    89.145228 2PiTHz  473.257512 cm-1    58.676474 meV
             X         Y         Z           dx          dy          dz
      0.000053  6.870000  7.915258     0.712859   -0.000001    0.000000  
      0.000053  7.612044  7.915258    -0.701308    0.000001   -0.000000  
 
   6 f/i=   14.320738 THz    89.979853 2PiTHz  477.688402 cm-1    59.225835 meV
             X         Y         Z           dx          dy          dz
      0.000053  6.870000  7.915258     0.000000   -0.000009   -0.707192  
      0.000053  7.612044  7.915258    -0.000000    0.000009    0.707022  
 
 Finite differences POTIM=  2.000000000000000E-002
  LATTYP: Found a hexagonal cell.
 ALAT       =    10.5475997925
 C/A-ratio  =     0.8019833706
  
  Lattice vectors:
  
 A1 = (  10.5475997925,   0.0000000000,   0.0000000000)
 A2 = (  -5.2737998962,   9.1344893692,   0.0000000000)
 A3 = (   0.0000000000,   0.0000000000,   8.4589996338)


Analysis of symmetry for initial positions (statically):
=====================================================================
 Subroutine PRICEL returns:
 Original cell was already a primitive cell.
 

 Routine SETGRP: Setting up the symmetry group for a 
 hexagonal supercell.


 Subroutine GETGRP returns: Found  8 space group operations
 (whereof  1 operations were pure point group operations)
 out of a pool of 24 trial point group operations.


The static configuration has the point symmetry C_1 .
 The point group associated with its full space group is D_2h.


Analysis of symmetry for dynamics (positions and initial velocities):
=====================================================================
 Subroutine PRICEL returns:
 Original cell was already a primitive cell.
 

 Routine SETGRP: Setting up the symmetry group for a 
 hexagonal supercell.


 Subroutine GETGRP returns: Found  8 space group operations
 (whereof  1 operations were pure point group operations)
 out of a pool of 24 trial point group operations.


The dynamic configuration has the point symmetry C_1 .
 The point group associated with its full space group is D_2h.


Analysis of constrained symmetry for selective dynamics:
=====================================================================
 Subroutine PRICEL returns:
 Original cell was already a primitive cell.
 

 Routine SETGRP: Setting up the symmetry group for a 
 hexagonal supercell.


 Subroutine GETGRP returns: Found  8 space group operations
 (whereof  1 operations were pure point group operations)
 out of a pool of 24 trial point group operations.


The constrained configuration has the point symmetry C_1 .
 The point group associated with its full space group is D_2h.


 Subroutine INISYM returns: Found  8 space group operations
 (whereof  1 operations are pure point group operations),
 and found     1 'primitive' translations

 
 KPOINTS: K-POINTS                                

Automatic generation of k-mesh.
Space group operators:
 irot       det(A)        alpha          n_x          n_y          n_z        tau_x        tau_y        tau_z
    1     1.000000     0.000000     1.000000     0.000000     0.000000     0.000000     0.000000     0.000000
    2    -1.000000     0.000000     1.000000     0.000000     0.000000     0.792722     0.585425     0.871441
    3     1.000000   180.000000     0.000000     0.000000     1.000000     0.792722     0.585425     0.000000
    4    -1.000000   180.000000     0.000000     0.000000     1.000000     0.000000     0.000000     0.871441
    5     1.000000   180.000000     1.000000    -0.000000     0.000000     0.792712     0.585425     0.871441
    6    -1.000000   180.000000     1.000000    -0.000000     0.000000     0.000010     0.000000     0.000000
    7     1.000000   180.000000     0.000000     1.000000     0.000000     0.000010     0.000000     0.871441
    8    -1.000000   180.000000     0.000000     1.000000     0.000000     0.792712     0.585425     0.000000
 
 Subroutine IBZKPT returns following result:
 ===========================================
 
 Found      1 irreducible k-points:
 
 Following reciprocal coordinates:
            Coordinates               Weight
  0.000000  0.000000  0.000000      1.000000
 
 Following cartesian coordinates:
            Coordinates               Weight
  0.000000  0.000000  0.000000      1.000000
 
     LOOP+:  cpu time    1.1053: real time    1.1123
    4ORBIT:  cpu time    0.0000: real time    0.0000

 total amount of memory used by VASP MPI-rank0    46358. kBytes
=======================================================================

   base      :      30000. kBytes
   nonlr-proj:        151. kBytes
   fftplans  :       4830. kBytes
   grid      :      11138. kBytes
   one-center:          2. kBytes
   wavefun   :        237. kBytes
 
  
  
 General timing and accounting informations for this job:
 ========================================================
  
                  Total CPU time used (sec):       17.225
                            User time (sec):       16.862
                          System time (sec):        0.363
                         Elapsed time (sec):       17.476
  
                   Maximum memory used (kb):       71628.
                   Average memory used (kb):           0.
  
                          Minor page faults:       152804
                          Major page faults:            1
                 Voluntary context switches:         1608
