Pt(111)                                 
           1
    10.547600    0.000000    0.000000
    -5.273800    9.134489    0.000000
     0.000000    0.000000    8.459000
   H 
   2
Direct configuration=     1
   0.37605230  0.75209459  0.93572038
   0.41666999  0.83332998  0.93572038
Direct configuration=     2
   0.37794847  0.75209459  0.93572038
   0.41666999  0.83332998  0.93572038
Direct configuration=     3
   0.37415613  0.75209459  0.93572038
   0.41666999  0.83332998  0.93572038
Direct configuration=     4
   0.37714705  0.75428409  0.93572038
   0.41666999  0.83332998  0.93572038
Direct configuration=     5
   0.37495755  0.74990508  0.93572038
   0.41666999  0.83332998  0.93572038
Direct configuration=     6
   0.37605230  0.75209459  0.93808473
   0.41666999  0.83332998  0.93572038
Direct configuration=     7
   0.37605230  0.75209459  0.93335603
   0.41666999  0.83332998  0.93572038
Direct configuration=     8
   0.37605230  0.75209459  0.93572038
   0.41856616  0.83332998  0.93572038
Direct configuration=     9
   0.37605230  0.75209459  0.93572038
   0.41477383  0.83332998  0.93572038
Direct configuration=    10
   0.37605230  0.75209459  0.93572038
   0.41776475  0.83551948  0.93572038
Direct configuration=    11
   0.37605230  0.75209459  0.93572038
   0.41557524  0.83114047  0.93572038
Direct configuration=    12
   0.37605230  0.75209459  0.93572038
   0.41666999  0.83332998  0.93808473
Direct configuration=    13
   0.37605230  0.75209459  0.93572038
   0.41666999  0.83332998  0.93335603
