   2   2   0   0
  0.1971582E+02  0.3820498E-09  0.3820498E-09  0.3820498E-09  0.5000000E-15
  1.000000000000000E-004
  CAR 
 unknown system                          
     22.47233317     -7.49726206  301      6.19197493      1.00000000
     -7.497  0.0000E+00  0.0000E+00
     -7.397  0.0000E+00  0.0000E+00
     -7.297  0.0000E+00  0.0000E+00
     -7.198  0.0000E+00  0.0000E+00
     -7.098  0.0000E+00  0.0000E+00
     -6.998  0.0000E+00  0.0000E+00
     -6.898  0.0000E+00  0.0000E+00
     -6.798  0.0000E+00  0.0000E+00
     -6.698  0.0000E+00  0.0000E+00
     -6.598  0.0000E+00  0.0000E+00
     -6.498  0.0000E+00  0.0000E+00
     -6.398  0.4841E-16  0.4836E-17
     -6.298  0.3312E-08  0.3309E-09
     -6.199  0.1727E-03  0.1725E-04
     -6.099  0.2138E-01  0.2153E-02
     -5.999  0.9445E-01  0.1159E-01
     -5.899  0.1446E+00  0.2603E-01
     -5.799  0.1812E+00  0.4413E-01
     -5.699  0.2151E+00  0.6562E-01
     -5.599  0.2432E+00  0.8992E-01
     -5.499  0.2566E+00  0.1156E+00
     -5.399  0.2948E+00  0.1450E+00
     -5.299  0.3122E+00  0.1762E+00
     -5.200  0.3238E+00  0.2085E+00
     -5.100  0.3706E+00  0.2456E+00
     -5.000  0.3572E+00  0.2813E+00
     -4.900  0.4148E+00  0.3227E+00
     -4.800  0.4071E+00  0.3634E+00
     -4.700  0.4492E+00  0.4082E+00
     -4.600  0.4496E+00  0.4532E+00
     -4.500  0.4757E+00  0.5007E+00
     -4.400  0.5227E+00  0.5529E+00
     -4.301  0.5049E+00  0.6033E+00
     -4.201  0.5842E+00  0.6617E+00
     -4.101  0.5628E+00  0.7179E+00
     -4.001  0.6281E+00  0.7806E+00
     -3.901  0.6927E+00  0.8499E+00
     -3.801  0.6710E+00  0.9169E+00
     -3.701  0.9126E+00  0.1008E+01
     -3.601  0.7770E+00  0.1086E+01
     -3.501  0.8973E+00  0.1175E+01
     -3.401  0.7533E+00  0.1251E+01
     -3.302  0.7472E+00  0.1325E+01
     -3.202  0.7449E+00  0.1400E+01
     -3.102  0.6656E+00  0.1466E+01
     -3.002  0.6864E+00  0.1535E+01
     -2.902  0.6142E+00  0.1596E+01
     -2.802  0.5917E+00  0.1655E+01
     -2.702  0.5412E+00  0.1709E+01
     -2.602  0.5256E+00  0.1762E+01
     -2.502  0.4833E+00  0.1810E+01
     -2.402  0.4311E+00  0.1853E+01
     -2.303  0.4296E+00  0.1896E+01
     -2.203  0.3030E+00  0.1926E+01
     -2.103  0.3622E+00  0.1962E+01
     -2.003  0.1863E+00  0.1981E+01
     -1.903  0.1591E+00  0.1997E+01
     -1.803  0.8646E-01  0.2006E+01
     -1.703  0.8386E-01  0.2014E+01
     -1.603  0.2023E+00  0.2034E+01
     -1.503  0.2599E+00  0.2060E+01
     -1.403  0.2370E+00  0.2084E+01
     -1.304  0.4805E+00  0.2132E+01
     -1.204  0.3131E+00  0.2163E+01
     -1.104  0.6919E+00  0.2232E+01
     -1.004  0.8560E+00  0.2318E+01
     -0.904  0.1535E+01  0.2471E+01
     -0.804  0.1403E+01  0.2611E+01
     -0.704  0.9617E+00  0.2707E+01
     -0.604  0.8865E+00  0.2796E+01
     -0.504  0.7607E+00  0.2872E+01
     -0.404  0.6571E+00  0.2937E+01
     -0.305  0.6494E+00  0.3002E+01
     -0.205  0.5782E+00  0.3060E+01
     -0.105  0.5501E+00  0.3115E+01
     -0.005  0.5007E+00  0.3165E+01
      0.095  0.4769E+00  0.3213E+01
      0.195  0.4422E+00  0.3257E+01
      0.295  0.4422E+00  0.3301E+01
      0.395  0.3781E+00  0.3339E+01
      0.495  0.3946E+00  0.3378E+01
      0.595  0.3432E+00  0.3413E+01
      0.694  0.3398E+00  0.3446E+01
      0.794  0.3486E+00  0.3481E+01
      0.894  0.2529E+00  0.3507E+01
      0.994  0.3261E+00  0.3539E+01
      1.094  0.2713E+00  0.3566E+01
      1.194  0.2424E+00  0.3590E+01
      1.294  0.2561E+00  0.3616E+01
      1.394  0.2499E+00  0.3641E+01
      1.494  0.4754E+00  0.3689E+01
      1.594  0.6465E+00  0.3753E+01
      1.693  0.1015E+01  0.3854E+01
      1.793  0.1181E+01  0.3972E+01
      1.893  0.1151E+01  0.4087E+01
      1.993  0.9652E+00  0.4184E+01
      2.093  0.1113E+01  0.4295E+01
      2.193  0.9329E+00  0.4388E+01
      2.293  0.1039E+01  0.4492E+01
      2.393  0.9726E+00  0.4589E+01
      2.493  0.1030E+01  0.4692E+01
      2.593  0.1048E+01  0.4797E+01
      2.692  0.1187E+01  0.4915E+01
      2.792  0.9703E+00  0.5012E+01
      2.892  0.1277E+01  0.5140E+01
      2.992  0.1306E+01  0.5270E+01
      3.092  0.1438E+01  0.5414E+01
      3.192  0.1410E+01  0.5555E+01
      3.292  0.1496E+01  0.5704E+01
      3.392  0.1489E+01  0.5853E+01
      3.492  0.1334E+01  0.5986E+01
      3.591  0.1335E+01  0.6120E+01
      3.691  0.1426E+01  0.6262E+01
      3.791  0.1239E+01  0.6386E+01
      3.891  0.1383E+01  0.6524E+01
      3.991  0.1160E+01  0.6640E+01
      4.091  0.1307E+01  0.6770E+01
      4.191  0.1208E+01  0.6891E+01
      4.291  0.1207E+01  0.7012E+01
      4.391  0.1121E+01  0.7124E+01
      4.491  0.1178E+01  0.7241E+01
      4.590  0.1120E+01  0.7353E+01
      4.690  0.1071E+01  0.7460E+01
      4.790  0.1007E+01  0.7561E+01
      4.890  0.7496E+00  0.7636E+01
      4.990  0.6331E+00  0.7699E+01
      5.090  0.6084E+00  0.7760E+01
      5.190  0.5097E+00  0.7811E+01
      5.290  0.4080E+00  0.7851E+01
      5.390  0.3667E+00  0.7888E+01
      5.490  0.3294E+00  0.7921E+01
      5.589  0.2842E+00  0.7949E+01
      5.689  0.2006E+00  0.7969E+01
      5.789  0.1743E+00  0.7987E+01
      5.889  0.1059E+00  0.7997E+01
      5.989  0.2509E-01  0.8000E+01
      6.089  0.3234E-03  0.8000E+01
      6.189  0.1041E-07  0.8000E+01
      6.289  0.5912E-04  0.8000E+01
      6.389  0.1108E-01  0.8001E+01
      6.489  0.8553E-01  0.8010E+01
      6.588  0.1711E+00  0.8027E+01
      6.688  0.2914E+00  0.8056E+01
      6.788  0.3055E+00  0.8086E+01
      6.888  0.3748E+00  0.8124E+01
      6.988  0.4413E+00  0.8168E+01
      7.088  0.5326E+00  0.8221E+01
      7.188  0.4776E+00  0.8269E+01
      7.288  0.5648E+00  0.8325E+01
      7.388  0.6617E+00  0.8391E+01
      7.488  0.7289E+00  0.8464E+01
      7.587  0.8195E+00  0.8546E+01
      7.687  0.8586E+00  0.8632E+01
      7.787  0.8966E+00  0.8721E+01
      7.887  0.1187E+01  0.8840E+01
      7.987  0.1176E+01  0.8957E+01
      8.087  0.1517E+01  0.9109E+01
      8.187  0.1513E+01  0.9260E+01
      8.287  0.1512E+01  0.9411E+01
      8.387  0.1470E+01  0.9558E+01
      8.487  0.1404E+01  0.9698E+01
      8.586  0.1301E+01  0.9828E+01
      8.686  0.1219E+01  0.9950E+01
      8.786  0.1059E+01  0.1006E+02
      8.886  0.9404E+00  0.1015E+02
      8.986  0.1102E+01  0.1026E+02
      9.086  0.1385E+01  0.1040E+02
      9.186  0.1956E+01  0.1059E+02
      9.286  0.2384E+01  0.1083E+02
      9.386  0.1675E+01  0.1100E+02
      9.486  0.1572E+01  0.1116E+02
      9.585  0.1672E+01  0.1132E+02
      9.685  0.1570E+01  0.1148E+02
      9.785  0.1426E+01  0.1162E+02
      9.885  0.1560E+01  0.1178E+02
      9.985  0.1621E+01  0.1194E+02
     10.085  0.1004E+01  0.1204E+02
     10.185  0.9841E+00  0.1214E+02
     10.285  0.1028E+01  0.1224E+02
     10.385  0.1391E+01  0.1238E+02
     10.484  0.1661E+01  0.1255E+02
     10.584  0.1252E+01  0.1267E+02
     10.684  0.1037E+01  0.1277E+02
     10.784  0.1025E+01  0.1288E+02
     10.884  0.1303E+01  0.1301E+02
     10.984  0.1406E+01  0.1315E+02
     11.084  0.1305E+01  0.1328E+02
     11.184  0.9903E+00  0.1338E+02
     11.284  0.1062E+01  0.1348E+02
     11.384  0.1171E+01  0.1360E+02
     11.483  0.1076E+01  0.1371E+02
     11.583  0.1296E+01  0.1384E+02
     11.683  0.1244E+01  0.1396E+02
     11.783  0.9416E+00  0.1406E+02
     11.883  0.8715E+00  0.1414E+02
     11.983  0.9756E+00  0.1424E+02
     12.083  0.8968E+00  0.1433E+02
     12.183  0.1403E+01  0.1447E+02
     12.283  0.1139E+01  0.1458E+02
     12.383  0.1023E+01  0.1469E+02
     12.482  0.1022E+01  0.1479E+02
     12.582  0.1031E+01  0.1489E+02
     12.682  0.1143E+01  0.1501E+02
     12.782  0.1387E+01  0.1514E+02
     12.882  0.1454E+01  0.1529E+02
     12.982  0.1114E+01  0.1540E+02
     13.082  0.9679E+00  0.1550E+02
     13.182  0.9133E+00  0.1559E+02
     13.282  0.9879E+00  0.1569E+02
     13.382  0.1077E+01  0.1579E+02
     13.481  0.1473E+01  0.1594E+02
     13.581  0.1719E+01  0.1611E+02
     13.681  0.1253E+01  0.1624E+02
     13.781  0.1142E+01  0.1635E+02
     13.881  0.1115E+01  0.1646E+02
     13.981  0.1085E+01  0.1657E+02
     14.081  0.1222E+01  0.1669E+02
     14.181  0.1543E+01  0.1685E+02
     14.281  0.1097E+01  0.1696E+02
     14.381  0.1069E+01  0.1706E+02
     14.480  0.1050E+01  0.1717E+02
     14.580  0.1005E+01  0.1727E+02
     14.680  0.1352E+01  0.1741E+02
     14.780  0.1600E+01  0.1756E+02
     14.880  0.1508E+01  0.1772E+02
     14.980  0.1142E+01  0.1783E+02
     15.080  0.1236E+01  0.1795E+02
     15.180  0.1396E+01  0.1809E+02
     15.280  0.1254E+01  0.1822E+02
     15.380  0.1622E+01  0.1838E+02
     15.479  0.1540E+01  0.1853E+02
     15.579  0.1088E+01  0.1864E+02
     15.679  0.1252E+01  0.1877E+02
     15.779  0.1287E+01  0.1890E+02
     15.879  0.1272E+01  0.1902E+02
     15.979  0.1381E+01  0.1916E+02
     16.079  0.1520E+01  0.1931E+02
     16.179  0.1139E+01  0.1943E+02
     16.279  0.1202E+01  0.1955E+02
     16.379  0.8692E+00  0.1963E+02
     16.478  0.1213E+01  0.1975E+02
     16.578  0.1244E+01  0.1988E+02
     16.678  0.1206E+01  0.2000E+02
     16.778  0.1287E+01  0.2013E+02
     16.878  0.1320E+01  0.2026E+02
     16.978  0.1242E+01  0.2038E+02
     17.078  0.1204E+01  0.2050E+02
     17.178  0.1315E+01  0.2064E+02
     17.278  0.1187E+01  0.2075E+02
     17.378  0.1333E+01  0.2089E+02
     17.477  0.1364E+01  0.2102E+02
     17.577  0.9996E+00  0.2112E+02
     17.677  0.1222E+01  0.2125E+02
     17.777  0.1128E+01  0.2136E+02
     17.877  0.1070E+01  0.2147E+02
     17.977  0.1220E+01  0.2159E+02
     18.077  0.1363E+01  0.2172E+02
     18.177  0.1758E+01  0.2190E+02
     18.277  0.1497E+01  0.2205E+02
     18.376  0.1397E+01  0.2219E+02
     18.476  0.1470E+01  0.2233E+02
     18.576  0.9525E+00  0.2243E+02
     18.676  0.1146E+01  0.2254E+02
     18.776  0.1323E+01  0.2268E+02
     18.876  0.1413E+01  0.2282E+02
     18.976  0.1150E+01  0.2293E+02
     19.076  0.1022E+01  0.2303E+02
     19.176  0.9024E+00  0.2312E+02
     19.276  0.6920E+00  0.2319E+02
     19.375  0.6575E+00  0.2326E+02
     19.475  0.8167E+00  0.2334E+02
     19.575  0.6268E+00  0.2340E+02
     19.675  0.7229E+00  0.2348E+02
     19.775  0.6408E+00  0.2354E+02
     19.875  0.4016E+00  0.2358E+02
     19.975  0.6202E+00  0.2364E+02
     20.075  0.8338E+00  0.2373E+02
     20.175  0.5566E+00  0.2378E+02
     20.275  0.3851E+00  0.2382E+02
     20.374  0.5339E+00  0.2387E+02
     20.474  0.4614E+00  0.2392E+02
     20.574  0.2611E+00  0.2394E+02
     20.674  0.1613E+00  0.2396E+02
     20.774  0.1051E+00  0.2397E+02
     20.874  0.1209E+00  0.2398E+02
     20.974  0.6125E-01  0.2399E+02
     21.074  0.5066E-01  0.2399E+02
     21.174  0.5118E-01  0.2400E+02
     21.274  0.1011E-02  0.2400E+02
     21.373  0.4033E-07  0.2400E+02
     21.473  0.9029E-15  0.2400E+02
     21.573  0.0000E+00  0.2400E+02
     21.673  0.0000E+00  0.2400E+02
     21.773  0.0000E+00  0.2400E+02
     21.873  0.0000E+00  0.2400E+02
     21.973  0.0000E+00  0.2400E+02
     22.073  0.0000E+00  0.2400E+02
     22.173  0.0000E+00  0.2400E+02
     22.273  0.0000E+00  0.2400E+02
     22.372  0.0000E+00  0.2400E+02
     22.472  0.0000E+00  0.2400E+02
