    2    2    1    1
  0.1971582E+02  0.3820498E-09  0.3820498E-09  0.3820498E-09  0.5000000E-15
  1.000000000000000E-004
  CAR 
 unknown system                          
      8    752     12
 
  0.3742002E-15  0.3742002E-15  0.3742002E-15  0.3703704E-04
    1       -6.135008   1.000000
    2        5.928841   1.000000
    3        5.928842   1.000000
    4        5.928842   1.000000
    5        8.460802   0.000000
    6        8.460802   0.000000
    7        8.460803   0.000000
    8        9.313284   0.000000
    9       13.669086   0.000000
   10       13.677520   0.000000
   11       13.677520   0.000000
   12       17.091322   0.000000
 
  0.3333333E-01  0.3747003E-15  0.3747003E-15  0.2962963E-03
    1       -6.120244   1.000000
    2        5.757619   1.000000
    3        5.903035   1.000000
    4        5.903035   1.000000
    5        8.497463   0.000000
    6        8.497463   0.000000
    7        8.498882   0.000000
    8        9.416953   0.000000
    9       13.616732   0.000000
   10       13.616732   0.000000
   11       13.736285   0.000000
   12       17.025973   0.000000
 
  0.6666667E-01  0.3816392E-15  0.3816392E-15  0.2962963E-03
    1       -6.075945   1.000000
    2        5.328737   1.000000
    3        5.831456   1.000000
    4        5.831456   1.000000
    5        8.522630   0.000000
    6        8.602593   0.000000
    7        8.602593   0.000000
    8        9.740577   0.000000
    9       13.474187   0.000000
   10       13.474187   0.000000
   11       13.930532   0.000000
   12       16.856317   0.000000
 
  0.1000000E+00  0.3747003E-15  0.3747003E-15  0.2962963E-03
    1       -6.002324   1.000000
    2        4.769710   1.000000
    3        5.726574   1.000000
    4        5.726574   1.000000
    5        8.469866   0.000000
    6        8.756870   0.000000
    7        8.756871   0.000000
    8       10.227838   0.000000
    9       13.292063   0.000000
   10       13.292065   0.000000
   11       14.226142   0.000000
   12       16.641922   0.000000
 
  0.1333333E+00  0.3747003E-15  0.3747003E-15  0.2962963E-03
    1       -5.899788   1.000000
    2        4.155005   1.000000
    3        5.602659   1.000000
    4        5.602659   1.000000
    5        8.366873   0.000000
    6        8.936303   0.000000
    7        8.936305   0.000000
    8       10.791003   0.000000
    9       13.119597   0.000000
   10       13.119600   0.000000
   11       14.567777   0.000000
   12       16.466136   0.000000
 
  0.1666667E+00  0.3608225E-15  0.3608225E-15  0.2962963E-03
    1       -5.768854   1.000000
    2        3.520867   1.000000
    3        5.471384   1.000000
    4        5.471384   1.000000
    5        8.240285   0.000000
    6        9.114850   0.000000
    7        9.114853   0.000000
    8       11.379996   0.000000
    9       12.997150   0.000000
   10       12.997155   0.000000
   11       14.838374   0.000000
   12       16.460090   0.000000
 
  0.2000000E+00  0.3747003E-15  0.3747003E-15  0.2962963E-03
    1       -5.610362   1.000000
    2        2.886131   1.000000
    3        5.341092   1.000000
    4        5.341092   1.000000
    5        8.106058   0.000000
    6        9.267040   0.000000
    7        9.267045   0.000000
    8       11.970228   0.000000
    9       12.957574   0.000000
   10       12.957581   0.000000
   11       14.905599   0.000000
   12       16.760242   0.000000
 
  0.2333333E+00  0.4024558E-15  0.4024558E-15  0.2962963E-03
    1       -5.425575   1.000000
    2        2.262396   1.000000
    3        5.217589   1.000000
    4        5.217590   1.000000
    5        7.973905   0.000000
    6        9.372799   0.000000
    7        9.372806   0.000000
    8       12.544675   0.000000
    9       13.025086   0.000000
   10       13.025096   0.000000
   11       14.815780   0.000000
   12       17.322284   0.000000
 
  0.2666667E+00  0.3885781E-15  0.3885781E-15  0.2962963E-03
    1       -5.216274   1.000000
    2        1.657472   1.000000
    3        5.104502   1.000000
    4        5.104503   1.000000
    5        7.849901   0.000000
    6        9.423827   0.000000
    7        9.423835   0.000000
    8       13.075462   0.000000
    9       13.209971   0.000000
   10       13.209985   0.000000
   11       14.704867   0.000000
   12       18.019414   0.000000
 
  0.3000000E+00  0.3885781E-15  0.3885781E-15  0.2962963E-03
    1       -4.985254   1.000000
    2        1.078278   1.000000
    3        5.004036   1.000000
    4        5.004037   1.000000
    5        7.737649   0.000000
    6        9.425937   0.000000
    7        9.425946   0.000000
    8       13.487330   0.000000
    9       13.506916   0.000000
   10       13.506933   0.000000
   11       14.705265   0.000000
   12       18.762508   0.000000
 
  0.3333333E+00  0.3608225E-15  0.3608225E-15  0.2962963E-03
    1       -4.736931   1.000000
    2        0.531972   1.000000
    3        4.917922   1.000000
    4        4.917923   1.000000
    5        7.640408   0.000000
    6        9.394508   0.000000
    7        9.394518   0.000000
    8       13.664248   0.000000
    9       13.901739   0.000000
   10       13.901758   0.000000
   11       14.957346   0.000000
   12       19.454684   0.000000
 
  0.3666667E+00  0.3330669E-15  0.3330669E-15  0.2962963E-03
    1       -4.478609   1.000000
    2        0.027680   1.000000
    3        4.846804   1.000000
    4        4.846805   1.000000
    5        7.559377   0.000000
    6        9.346359   0.000000
    7        9.346370   0.000000
    8       13.654470   0.000000
    9       14.374950   0.000000
   10       14.374974   0.000000
   11       15.420628   0.000000
   12       19.899112   0.000000
 
  0.4000000E+00  0.3330669E-15  0.3330669E-15  0.2962963E-03
    1       -4.222890   1.000000
    2       -0.420500   1.000000
    3        4.791258   1.000000
    4        4.791260   1.000000
    5        7.495878   0.000000
    6        9.295943   0.000000
    7        9.295954   0.000000
    8       13.588295   0.000000
    9       14.912391   0.000000
   10       14.912418   0.000000
   11       15.963661   0.000000
   12       19.154912   0.000000
 
  0.4333333E+00  0.3885781E-15  0.3885781E-15  0.2962963E-03
    1       -3.991906   1.000000
    2       -0.789621   1.000000
    3        4.751481   1.000000
    4        4.751482   1.000000
    5        7.449979   0.000000
    6        9.253333   0.000000
    7        9.253344   0.000000
    8       13.523450   0.000000
    9       15.496043   0.000000
   10       15.496075   0.000000
   11       16.510500   0.000000
   12       18.410327   0.000000
 
  0.4666667E+00  0.3608225E-15  0.3608225E-15  0.2962963E-03
    1       -3.821761   1.000000
    2       -1.042855   1.000000
    3        4.727617   1.000000
    4        4.727619   1.000000
    5        7.422325   0.000000
    6        9.225378   0.000000
    7        9.225389   0.000000
    8       13.479888   0.000000
    9       16.098136   0.000000
   10       16.098171   0.000000
   11       16.982827   0.000000
   12       17.711591   0.000000
 
  0.5000000E+00  0.3608225E-15  0.3608225E-15  0.1481481E-03
    1       -3.757273   1.000000
    2       -1.135011   1.000000
    3        4.719655   1.000000
    4        4.719657   1.000000
    5        7.413239   0.000000
    6        9.215659   0.000000
    7        9.215670   0.000000
    8       13.464973   0.000000
    9       16.495568   0.000000
   10       16.495612   0.000000
   11       17.198798   0.000000
   12       17.281400   0.000000
 
  0.3333333E-01  0.3333333E-01  0.3745543E-15  0.2222222E-03
    1       -6.115313   1.000000
    2        5.798862   1.000000
    3        5.844517   1.000000
    4        5.844517   1.000000
    5        8.408907   0.000000
    6        8.568315   0.000000
    7        8.568315   0.000000
    8        9.439785   0.000000
    9       13.508087   0.000000
   10       13.696277   0.000000
   11       13.758581   0.000000
   12       17.125922   0.000000
 
  0.6666667E-01  0.3333333E-01  0.3747003E-15  0.8888889E-03
    1       -6.080841   1.000000
    2        5.461766   1.000000
    3        5.746068   1.000000
    4        5.823600   1.000000
    5        8.400475   0.000000
    6        8.655918   0.000000
    7        8.701302   0.000000
    8        9.672150   0.000000
    9       13.319854   0.000000
   10       13.662783   0.000000
   11       13.910306   0.000000
   12       17.009589   0.000000
 
  0.1000000E+00  0.3333333E-01  0.3747003E-15  0.8888889E-03
    1       -6.016970   1.000000
    2        4.945046   1.000000
    3        5.622223   1.000000
    4        5.765866   1.000000
    5        8.447837   0.000000
    6        8.680372   0.000000
    7        8.877157   0.000000
    8       10.098814   0.000000
    9       13.104176   0.000000
   10       13.552071   0.000000
   11       14.173535   0.000000
   12       16.801198   0.000000
 
  0.1333333E+00  0.3333333E-01  0.3747003E-15  0.8888889E-03
    1       -5.924046   1.000000
    2        4.351368   1.000000
    3        5.486340   1.000000
    4        5.669635   1.000000
    5        8.451141   0.000000
    6        8.736896   0.000000
    7        9.073309   0.000000
    8       10.623299   0.000000
    9       12.907531   0.000000
   10       13.414267   0.000000
   11       14.508112   0.000000
   12       16.596369   0.000000
 
  0.1666667E+00  0.3333333E-01  0.3885781E-15  0.8888889E-03
    1       -5.802527   1.000000
    2        3.726592   1.000000
    3        5.348679   1.000000
    4        5.549908   1.000000
    5        8.365543   0.000000
    6        8.875888   0.000000
    7        9.265796   0.000000
    8       11.169023   0.000000
    9       12.776125   0.000000
   10       13.300105   0.000000
   11       14.826165   0.000000
   12       16.502293   0.000000
 
  0.2000000E+00  0.3333333E-01  0.3608225E-15  0.8888889E-03
    1       -5.653135   1.000000
    2        3.094505   1.000000
    3        5.216361   1.000000
    4        5.419426   1.000000
    5        8.246196   0.000000
    6        9.032226   0.000000
    7        9.430425   0.000000
    8       11.677207   0.000000
    9       12.768035   0.000000
   10       13.251531   0.000000
   11       14.981276   0.000000
   12       16.672336   0.000000
 
  0.2333333E+00  0.3333333E-01  0.3747003E-15  0.8888889E-03
    1       -5.476988   1.000000
    2        2.468986   1.000000
    3        5.094278   1.000000
    4        5.287336   1.000000
    5        8.119580   0.000000
    6        9.163290   0.000000
    7        9.546681   0.000000
    8       12.081848   0.000000
    9       12.958217   0.000000
   10       13.299527   0.000000
   11       14.936686   0.000000
   12       17.144211   0.000000
 
  0.2666667E+00  0.3333333E-01  0.3747003E-15  0.8888889E-03
    1       -5.275646   1.000000
    2        1.859082   1.000000
    3        4.985593   1.000000
    4        5.159801   1.000000
    5        7.996621   0.000000
    6        9.247693   0.000000
    7        9.604088   0.000000
    8       12.387649   0.000000
    9       13.339036   0.000000
   10       13.460527   0.000000
   11       14.816585   0.000000
   12       17.796081   0.000000
 
  0.3000000E+00  0.3333333E-01  0.3885781E-15  0.8888889E-03
    1       -5.051500   1.000000
    2        1.272161   1.000000
    3        4.892152   1.000000
    4        5.040715   1.000000
    5        7.883084   0.000000
    6        9.281959   0.000000
    7        9.606176   0.000000
    8       12.692742   0.000000
    9       13.734094   0.000000
   10       13.758481   0.000000
   11       14.754493   0.000000
   12       18.522136   0.000000
 
  0.3333333E+00  0.3333333E-01  0.3608225E-15  0.8888889E-03
    1       -4.808361   1.000000
    2        0.715147   1.000000
    3        4.815198   1.000000
    4        4.932697   1.000000
    5        7.782329   0.000000
    6        9.277226   0.000000
    7        9.567202   0.000000
    8       13.037317   0.000000
    9       14.016769   0.000000
   10       14.107262   0.000000
   11       14.930148   0.000000
   12       19.226358   0.000000
 
  0.3666667E+00  0.3333333E-01  0.3608225E-15  0.8888889E-03
    1       -4.552309   1.000000
    2        0.196473   1.000000
    3        4.755368   1.000000
    4        4.837518   1.000000
    5        7.697022   0.000000
    6        9.250945   0.000000
    7        9.504865   0.000000
    8       13.372136   0.000000
    9       14.126881   0.000000
   10       14.562986   0.000000
   11       15.375675   0.000000
   12       19.696960   0.000000
 
  0.4000000E+00  0.3333333E-01  0.3608225E-15  0.8888889E-03
    1       -4.293826   1.000000
    2       -0.271810   1.000000
    3        4.712872   1.000000
    4        4.756261   1.000000
    5        7.628264   0.000000
    6        9.218850   0.000000
    7        9.434636   0.000000
    8       13.549997   0.000000
    9       14.384628   0.000000
   10       15.084516   0.000000
   11       15.924142   0.000000
   12       19.050030   0.000000
 
  0.4333333E+00  0.3333333E-01  0.3608225E-15  0.8888889E-03
    1       -4.051282   1.000000
    2       -0.670234   1.000000
    3        4.687704   1.000000
    4        4.689753   1.000000
    5        7.576905   0.000000
    6        9.192676   0.000000
    7        9.368314   0.000000
    8       13.567073   0.000000
    9       14.853441   0.000000
   10       15.652861   0.000000
   11       16.489192   0.000000
   12       18.307335   0.000000
 
  0.4666667E+00  0.3333333E-01  0.3885781E-15  0.8888889E-03
    1       -3.855861   1.000000
    2       -0.966878   1.000000
    3        4.638573   1.000000
    4        4.679629   1.000000
    5        7.543198   0.000000
    6        9.180133   0.000000
    7        9.313641   0.000000
    8       13.544218   0.000000
    9       15.413296   0.000000
   10       16.228602   0.000000
   11       17.002725   0.000000
   12       17.616060   0.000000
 
  0.5000000E+00  0.3333333E-01  0.3330669E-15  0.8888889E-03
    1       -3.751562   1.000000
    2       -1.117185   1.000000
    3        4.603274   1.000000
    4        4.688324   1.000000
    5        7.527751   0.000000
    6        9.185604   0.000000
    7        9.275533   0.000000
    8       13.529707   0.000000
    9       15.965312   0.000000
   10       16.486225   0.000000
   11       17.247660   0.000000
   12       17.309381   0.000000
 
 -0.4666667E+00  0.3333333E-01  0.3608225E-15  0.8888889E-03
    1       -3.773438   1.000000
    2       -1.086097   1.000000
    3        4.584270   1.000000
    4        4.713353   1.000000
    5        7.530334   0.000000
    6        9.210790   0.000000
    7        9.256224   0.000000
    8       13.535467   0.000000
    9       15.981715   0.000000
   10       16.173470   0.000000
   11       17.226618   0.000000
   12       17.437096   0.000000
 
 -0.4333333E+00  0.3333333E-01  0.3608225E-15  0.8888889E-03
    1       -3.913270   1.000000
    2       -0.881784   1.000000
    3        4.582005   1.000000
    4        4.754308   1.000000
    5        7.551084   0.000000
    6        9.254985   0.000000
    7        9.255709   0.000000
    8       13.562005   0.000000
    9       15.359003   0.000000
   10       15.776211   0.000000
   11       16.964643   0.000000
   12       17.743551   0.000000
 
 -0.4000000E+00  0.3333333E-01  0.3885781E-15  0.8888889E-03
    1       -4.128827   1.000000
    2       -0.546672   1.000000
    3        4.596865   1.000000
    4        4.810682   1.000000
    5        7.590045   0.000000
    6        9.271403   0.000000
    7        9.315135   0.000000
    8       13.598790   0.000000
    9       14.759739   0.000000
   10       15.253721   0.000000
   11       16.403030   0.000000
   12       18.427122   0.000000
 
 -0.3666667E+00  0.3333333E-01  0.3608225E-15  0.8888889E-03
    1       -4.379419   1.000000
    2       -0.122111   1.000000
    3        4.629153   1.000000
    4        4.881886   1.000000
    5        7.646634   0.000000
    6        9.297947   0.000000
    7        9.385372   0.000000
    8       13.611346   0.000000
    9       14.206833   0.000000
   10       14.784810   0.000000
   11       15.824908   0.000000
   12       19.122445   0.000000
 
 -0.3333333E+00  0.3333333E-01  0.3885781E-15  0.8888889E-03
    1       -4.638642   1.000000
    2        0.364697   1.000000
    3        4.679061   1.000000
    4        4.967246   1.000000
    5        7.720566   0.000000
    6        9.326461   0.000000
    7        9.456519   0.000000
    8       13.515785   0.000000
    9       13.716014   0.000000
   10       14.464824   0.000000
   11       15.276238   0.000000
   12       19.498566   0.000000
 
 -0.3000000E+00  0.3333333E-01  0.3885781E-15  0.8888889E-03
    1       -4.891280   1.000000
    2        0.897228   1.000000
    3        4.746533   1.000000
    4        5.065788   1.000000
    5        7.810928   0.000000
    6        9.344076   0.000000
    7        9.515101   0.000000
    8       13.251144   0.000000
    9       13.301142   0.000000
   10       14.279278   0.000000
   11       14.856253   0.000000
   12       18.989729   0.000000
 
 -0.2666667E+00  0.3333333E-01  0.3885781E-15  0.8888889E-03
    1       -5.128620   1.000000
    2        1.464990   1.000000
    3        4.831333   1.000000
    4        5.176180   1.000000
    5        7.916537   0.000000
    6        9.334585   0.000000
    7        9.543747   0.000000
    8       12.896263   0.000000
    9       12.981309   0.000000
   10       13.967333   0.000000
   11       14.762148   0.000000
   12       18.271114   0.000000
 
 -0.2333333E+00  0.3333333E-01  0.3608225E-15  0.8888889E-03
    1       -5.345493   1.000000
    2        2.060174   1.000000
    3        4.932731   1.000000
    4        5.296371   1.000000
    5        8.034577   0.000000
    6        9.282532   0.000000
    7        9.523854   0.000000
    8       12.502770   0.000000
    9       12.772808   0.000000
   10       13.606078   0.000000
   11       14.862660   0.000000
   12       17.562283   0.000000
 
 -0.2000000E+00  0.3333333E-01  0.3747003E-15  0.8888889E-03
    1       -5.538643   1.000000
    2        2.675871   1.000000
    3        5.049424   1.000000
    4        5.423387   1.000000
    5        8.161737   0.000000
    6        9.180592   0.000000
    7        9.443060   0.000000
    8       12.056983   0.000000
    9       12.683836   0.000000
   10       13.360114   0.000000
   11       14.972844   0.000000
   12       16.958371   0.000000
 
 -0.1666667E+00  0.3333333E-01  0.3885781E-15  0.8888889E-03
    1       -5.706014   1.000000
    2        3.304109   1.000000
    3        5.179307   1.000000
    4        5.552681   1.000000
    5        8.292480   0.000000
    6        9.035822   0.000000
    7        9.302807   0.000000
    8       11.551359   0.000000
    9       12.708316   0.000000
   10       13.268165   0.000000
   11       14.958509   0.000000
   12       16.579993   0.000000
 
 -0.1333333E+00  0.3333333E-01  0.3747003E-15  0.8888889E-03
    1       -5.846204   1.000000
    2        3.934200   1.000000
    3        5.319252   1.000000
    4        5.677313   1.000000
    5        8.418015   0.000000
    6        8.868780   0.000000
    7        9.119755   0.000000
    8       11.008740   0.000000
    9       12.826610   0.000000
   10       13.300892   0.000000
   11       14.731457   0.000000
   12       16.515411   0.000000
 
 -0.1000000E+00  0.3333333E-01  0.3747003E-15  0.8888889E-03
    1       -5.958249   1.000000
    2        4.548567   1.000000
    3        5.464562   1.000000
    4        5.787431   1.000000
    5        8.522831   0.000000
    6        8.705868   0.000000
    7        8.919942   0.000000
    8       10.463431   0.000000
    9       13.011393   0.000000
   10       13.407896   0.000000
   11       14.392460   0.000000
   12       16.661096   0.000000
 
 -0.6666667E-01  0.3333333E-01  0.3747003E-15  0.8888889E-03
    1       -6.041528   1.000000
    2        5.113821   1.000000
    3        5.610170   1.000000
    4        5.870096   1.000000
    5        8.574818   0.000000
    6        8.576945   0.000000
    7        8.737518   0.000000
    8        9.964018   0.000000
    9       13.231027   0.000000
   10       13.533869   0.000000
   11       14.074902   0.000000
   12       16.871108   0.000000
 
 -0.3333333E-01  0.3333333E-01  0.3816392E-15  0.4444444E-03
    1       -6.095616   1.000000
    2        5.554155   1.000000
    3        5.760043   1.000000
    4        5.911765   1.000000
    5        8.500541   0.000000
    6        8.535495   0.000000
    7        8.614600   0.000000
    8        9.590109   0.000000
    9       13.448027   0.000000
   10       13.620702   0.000000
   11       13.845913   0.000000
   12       17.027728   0.000000
 
  0.6666667E-01  0.6666667E-01  0.3745543E-15  0.2222222E-03
    1       -6.056194   1.000000
    2        5.457852   1.000000
    3        5.626901   1.000000
    4        5.626901   1.000000
    5        8.266263   0.000000
    6        8.857425   0.000000
    7        8.857426   0.000000
    8        9.758894   0.000000
    9       13.102923   0.000000
   10       13.761375   0.000000
   11       14.016286   0.000000
   12       17.228916   0.000000
 
  0.1000000E+00  0.6666667E-01  0.3747003E-15  0.8888889E-03
    1       -6.002112   1.000000
    2        5.056879   1.000000
    3        5.488350   1.000000
    4        5.581616   1.000000
    5        8.223753   0.000000
    6        8.966896   0.000000
    7        9.052127   0.000000
    8       10.055395   0.000000
    9       12.871459   0.000000
   10       13.754691   0.000000
   11       14.237946   0.000000
   12       17.106897   0.000000
 
  0.1333333E+00  0.6666667E-01  0.3747003E-15  0.8888889E-03
    1       -5.918876   1.000000
    2        4.508914   1.000000
    3        5.342737   1.000000
    4        5.525172   1.000000
    5        8.260967   0.000000
    6        8.965465   0.000000
    7        9.264668   0.000000
    8       10.494612   0.000000
    9       12.680637   0.000000
   10       13.682258   0.000000
   11       14.548732   0.000000
   12       16.888905   0.000000
 
  0.1666667E+00  0.6666667E-01  0.3747003E-15  0.8888889E-03
    1       -5.806877   1.000000
    2        3.909734   1.000000
    3        5.199185   1.000000
    4        5.427663   1.000000
    5        8.330585   0.000000
    6        8.938186   0.000000
    7        9.473213   0.000000
    8       10.939259   0.000000
    9       12.596939   0.000000
   10       13.597491   0.000000
   11       14.891117   0.000000
   12       16.721106   0.000000
 
  0.2000000E+00  0.6666667E-01  0.3747003E-15  0.8888889E-03
    1       -5.666753   1.000000
    2        3.291644   1.000000
    3        5.063929   1.000000
    4        5.303251   1.000000
    5        8.364691   0.000000
    6        8.952942   0.000000
    7        9.654560   0.000000
    8       11.279226   0.000000
    9       12.707249   0.000000
   10       13.552155   0.000000
   11       15.143731   0.000000
   12       16.739856   0.000000
 
  0.2333333E+00  0.6666667E-01  0.3885781E-15  0.8888889E-03
    1       -5.499477   1.000000
    2        2.672541   1.000000
    3        4.941452   1.000000
    4        5.165725   1.000000
    5        8.328687   0.000000
    6        9.025572   0.000000
    7        9.787447   0.000000
    8       11.491461   0.000000
    9       13.040291   0.000000
   10       13.586837   0.000000
   11       15.187013   0.000000
   12       17.066983   0.000000
 
  0.2666667E+00  0.6666667E-01  0.4024558E-15  0.8888889E-03
    1       -5.306419   1.000000
    2        2.063759   1.000000
    3        4.834451   1.000000
    4        5.025048   1.000000
    5        8.248465   0.000000
    6        9.108006   0.000000
    7        9.858629   0.000000
    8       11.674105   0.000000
    9       13.507417   0.000000
   10       13.726337   0.000000
   11       15.084436   0.000000
   12       17.636145   0.000000
 
  0.3000000E+00  0.6666667E-01  0.3608225E-15  0.8888889E-03
    1       -5.089638   1.000000
    2        1.473861   1.000000
    3        4.744680   1.000000
    4        4.887942   1.000000
    5        8.154181   0.000000
    6        9.159867   0.000000
    7        9.868447   0.000000
    8       11.913882   0.000000
    9       13.976905   0.000000
   10       14.002374   0.000000
   11       14.970403   0.000000
   12       18.318604   0.000000
 
  0.3333333E+00  0.6666667E-01  0.3608225E-15  0.8888889E-03
    1       -4.852380   1.000000
    2        0.910163   1.000000
    3        4.673261   1.000000
    4        4.758702   1.000000
    5        8.061501   0.000000
    6        9.173714   0.000000
    7        9.829448   0.000000
    8       12.234835   0.000000
    9       14.329060   0.000000
   10       14.353072   0.000000
   11       15.035949   0.000000
   12       19.006953   0.000000
 
  0.3666667E+00  0.6666667E-01  0.3885781E-15  0.8888889E-03
    1       -4.599791   1.000000
    2        0.380673   1.000000
    3        4.620767   1.000000
    4        4.640218   1.000000
    5        7.978061   0.000000
    6        9.161923   0.000000
    7        9.759508   0.000000
    8       12.622560   0.000000
    9       14.398530   0.000000
   10       14.766877   0.000000
   11       15.457292   0.000000
   12       19.500254   0.000000
 
  0.4000000E+00  0.6666667E-01  0.3885781E-15  0.8888889E-03
    1       -4.340551   1.000000
    2       -0.103856   1.000000
    3        4.534556   1.000000
    4        4.587348   1.000000
    5        7.907971   0.000000
    6        9.140567   0.000000
    7        9.675384   0.000000
    8       13.036839   0.000000
    9       14.379190   0.000000
   10       15.272999   0.000000
   11       16.017023   0.000000
   12       18.961413   0.000000
 
  0.4333333E+00  0.6666667E-01  0.3608225E-15  0.8888889E-03
    1       -4.089851   1.000000
    2       -0.526881   1.000000
    3        4.443123   1.000000
    4        4.572928   1.000000
    5        7.853256   0.000000
    6        9.123123   0.000000
    7        9.590157   0.000000
    8       13.396931   0.000000
    9       14.466228   0.000000
   10       15.826796   0.000000
   11       16.596054   0.000000
   12       18.221984   0.000000
 
  0.4666667E+00  0.6666667E-01  0.4163336E-15  0.8888889E-03
    1       -3.874099   1.000000
    2       -0.861044   1.000000
    3        4.367070   1.000000
    4        4.577148   1.000000
    5        7.815277   0.000000
    6        9.118453   0.000000
    7        9.513000   0.000000
    8       13.601679   0.000000
    9       14.763687   0.000000
   10       16.373229   0.000000
   11       17.118386   0.000000
   12       17.543694   0.000000
 
  0.5000000E+00  0.6666667E-01  0.3608225E-15  0.8888889E-03
    1       -3.734124   1.000000
    2       -1.064823   1.000000
    3        4.307334   1.000000
    4        4.599508   1.000000
    5        7.794814   0.000000
    6        9.131738   0.000000
    7        9.449763   0.000000
    8       13.675877   0.000000
    9       15.217738   0.000000
   10       16.463322   0.000000
   11       17.282004   0.000000
   12       17.387132   0.000000
 
 -0.4666667E+00  0.6666667E-01  0.3885781E-15  0.8888889E-03
    1       -3.712387   1.000000
    2       -1.095531   1.000000
    3        4.264784   1.000000
    4        4.639329   1.000000
    5        7.792065   0.000000
    6        9.165250   0.000000
    7        9.403795   0.000000
    8       13.703254   0.000000
    9       15.627526   0.000000
   10       15.884783   0.000000
   11       17.020915   0.000000
   12       17.962432   0.000000
 
 -0.4333333E+00  0.6666667E-01  0.3608225E-15  0.8888889E-03
    1       -3.817087   1.000000
    2       -0.945005   1.000000
    3        4.240110   1.000000
    4        4.695824   1.000000
    5        7.807061   0.000000
    6        9.218939   0.000000
    7        9.375879   0.000000
    8       13.714839   0.000000
    9       15.243001   0.000000
   10       15.630177   0.000000
   11       17.126685   0.000000
   12       17.793458   0.000000
 
 -0.4000000E+00  0.6666667E-01  0.3608225E-15  0.8888889E-03
    1       -4.012920   1.000000
    2       -0.648638   1.000000
    3        4.234076   1.000000
    4        4.768104   1.000000
    5        7.839817   0.000000
    6        9.290529   0.000000
    7        9.364576   0.000000
    8       13.700912   0.000000
    9       14.629223   0.000000
   10       15.287798   0.000000
   11       17.200084   0.000000
   12       17.683726   0.000000
 
 -0.3666667E+00  0.6666667E-01  0.3885781E-15  0.8888889E-03
    1       -4.255668   1.000000
    2       -0.251222   1.000000
    3        4.247254   1.000000
    4        4.855090   1.000000
    5        7.889931   0.000000
    6        9.365686   0.000000
    7        9.375076   0.000000
    8       13.611707   0.000000
    9       14.061318   0.000000
   10       14.956711   0.000000
   11       16.600835   0.000000
   12       18.330388   0.000000
 
 -0.3333333E+00  0.6666667E-01  0.3885781E-15  0.8888889E-03
    1       -4.514192   1.000000
    2        0.215213   1.000000
    3        4.280153   1.000000
    4        4.955591   1.000000
    5        7.956844   0.000000
    6        9.371573   0.000000
    7        9.464349   0.000000
    8       13.386670   0.000000
    9       13.553472   0.000000
   10       14.793224   0.000000
   11       15.999410   0.000000
   12       18.933748   0.000000
 
 -0.3000000E+00  0.6666667E-01  0.3885781E-15  0.8888889E-03
    1       -4.770168   1.000000
    2        0.731065   1.000000
    3        4.333174   1.000000
    4        5.067924   1.000000
    5        8.039844   0.000000
    6        9.370667   0.000000
    7        9.545619   0.000000
    8       13.049438   0.000000
    9       13.120461   0.000000
   10       14.795741   0.000000
   11       15.420705   0.000000