unknown system                          
           1
     6.691170   -0.000259   -0.000470
    -0.000259    6.691170   -0.000470
    -0.000470   -0.000470    6.695222
   Ni   Co
  16  16
Direct configuration=     1
   0.49911103  0.74959700  0.24973120
   0.75087888  0.49861837  0.24888003
   0.75079195  0.00133498  0.24955872
   0.00003100  0.74921001  0.25029962
   0.24892030  0.75083762  0.49950856
   0.49941132  0.49886544  0.49927913
   0.49916238  0.00107970  0.50049144
   0.75113456  0.75058868  0.50072087
   0.24866502  0.49920805  0.75044128
   0.50078999  0.24996900  0.74970038
   0.50040300  0.75088897  0.75026880
   0.75138163  0.49912112  0.75111997
   0.24907112  0.24981968  0.00121236
   0.24958486  0.74936646  0.00006644
   0.50063354  0.00041514  0.99993356
   0.00018032  0.00092888  0.99878764
   0.24939126  0.49904189  0.24997617
   0.24899092  0.00286116  0.25190338
   0.49920754  0.24944595  0.25012016
   0.00020198  0.25026998  0.25148625
   0.24915580  0.24935232  0.49906690
   0.75274225  0.25008047  0.50043804
   0.99991953  0.49725775  0.49956196
   0.00064768  0.00084420  0.50093310
   0.24713884  0.00100908  0.74809662
   0.75095811  0.00060874  0.75002383
   0.99973002  0.24979802  0.74851375
   0.00055405  0.75079246  0.74987984
   0.50128959  0.49983678  0.00070272
   0.75057346  0.25081516  0.00017406
   0.75016322  0.74871041  0.99929728
   0.99918484  0.49942654  0.99982594
unknown system                          
           1
     6.949019   -0.000110   -0.000200
    -0.000110    6.949019   -0.000200
    -0.000200   -0.000200    6.950743
   Ni   Co
  16  16
Direct configuration=     2
   0.49896450  0.74934625  0.24874274
   0.75101710  0.49770188  0.24852923
   0.75105485  0.00206808  0.24957439
   0.00040867  0.74920711  0.25004809
   0.24772635  0.75084249  0.49953537
   0.49930822  0.49785874  0.49858163
   0.49915751  0.00227365  0.50046463
   0.75214126  0.75069178  0.50141837
   0.24793192  0.49894515  0.75042561
   0.50079289  0.24959133  0.74995191
   0.50065375  0.75103550  0.75125726
   0.75229812  0.49898290  0.75147077
   0.24897484  0.25021280  0.00145751
   0.24916778  0.74935119 -0.00000619
   0.50064881  0.00083222  0.00000619
  -0.00021280  0.00102516  0.99854249
   0.24878146  0.49648912  0.24973536
   0.24854553  0.00444465  0.25286461
   0.49852964  0.25067123  0.24993708
   0.00097952  0.25088421  0.25235998
   0.24680825  0.24879433  0.49779746
   0.75419186  0.24914315  0.50009373
   0.00085685  0.49580814  0.49990627
   0.00120567  0.00319175  0.50220254
   0.24555535  0.00145447  0.74713539
   0.75351088  0.00121854  0.75026464
   0.99911579  0.24902048  0.74764002
  -0.00067123  0.75147036  0.75006292
   0.50183518  0.49903928  0.00239521
   0.75111604  0.25135531  0.00002051
   0.75096072  0.74816482  0.99760479
   0.99864469  0.49888396  0.99997949
unknown system                          
           1
     6.944320   -0.000113   -0.000205
    -0.000113    6.944320   -0.000205
    -0.000205   -0.000205    6.946086
   Ni   Co
  16  16
Direct configuration=     3
   0.49905438  0.74950001  0.24934835
   0.75093240  0.49826372  0.24874419
   0.75089367  0.00161867  0.24956475
   0.00017716  0.74920889  0.25020217
   0.24845827  0.75083953  0.49951900
   0.49937148  0.49847590  0.49900901
   0.49916047  0.00154173  0.50048100
   0.75152410  0.75062852  0.50099099
   0.24838133  0.49910633  0.75043525
   0.50079111  0.24982284  0.74979783
   0.50049999  0.75094562  0.75065165
   0.75173628  0.49906760  0.75125581
   0.24903384  0.24997180  0.00130731
   0.24942346  0.74936057  0.00003833
   0.50063943  0.00057654 -0.00003833
   0.00002820  0.00096616  0.99869269
   0.24915535  0.49805406  0.24988303
   0.24881849  0.00347389  0.25227566
   0.49894519  0.24992012  0.25004922
   0.00050282  0.25050761  0.25182462
   0.24824743  0.24913650  0.49857531
   0.75330325  0.24971774  0.50030465
   0.00028226  0.49669675  0.49969535
   0.00086350  0.00175257  0.50142469
   0.24652611  0.00118151  0.74772434
   0.75194594  0.00084465  0.75011697
   0.99949239  0.24949718  0.74817538
   0.00007988  0.75105481  0.74995078
   0.50150066  0.49952808  0.00135831
   0.75078342  0.25102417  0.00011454
   0.75047192  0.74849934  0.99864169
   0.99897583  0.49921658  0.99988546
unknown system                          
           1
     6.942943   -0.000114   -0.000206
    -0.000114    6.942943   -0.000206
    -0.000206   -0.000206    6.944722
   Ni   Co
  16  16
Direct configuration=     4
   0.49905280  0.74949731  0.24933771
   0.75093389  0.49825386  0.24874041
   0.75089649  0.00162655  0.24956492
   0.00018122  0.74920886  0.25019947
   0.24844543  0.75083958  0.49951928
   0.49937037  0.49846507  0.49900151
   0.49916042  0.00155457  0.50048072
   0.75153493  0.75062963  0.50099849
   0.24837345  0.49910351  0.75043508
   0.50079114  0.24981878  0.74980053
   0.50050269  0.75094720  0.75066229
   0.75174614  0.49906611  0.75125959
   0.24903281  0.24997603  0.00130994
   0.24941898  0.74936040  0.00003755
   0.50063960  0.00058102 -0.00003755
   0.00002397  0.00096719  0.99869006
   0.24914879  0.49802660  0.24988044
   0.24881370  0.00349093  0.25228599
   0.49893790  0.24993330  0.25004725
   0.00051118  0.25051422  0.25183402
   0.24822217  0.24913050  0.49856166
   0.75331884  0.24970765  0.50030095
   0.00029235  0.49668116  0.49969905
   0.00086950  0.00177783  0.50143834
   0.24650907  0.00118630  0.74771401
   0.75197340  0.00085121  0.75011956
   0.99948578  0.24948882  0.74816598
   0.00006670  0.75106210  0.74995275
   0.50150653  0.49951951  0.00137651
   0.75078926  0.25102998  0.00011289
   0.75048049  0.74849347  0.99862349
   0.99897002  0.49921074  0.99988711
unknown system                          
           1
     6.943384   -0.000113   -0.000206
    -0.000113    6.943384   -0.000206
    -0.000206   -0.000206    6.945159
   Ni   Co
  16  16
Direct configuration=     5
   0.49905234  0.74949652  0.24933460
   0.75093433  0.49825097  0.24873931
   0.75089732  0.00162886  0.24956497
   0.00018241  0.74920885  0.25019868
   0.24844167  0.75083960  0.49951937
   0.49937004  0.49846190  0.49899931
   0.49916040  0.00155833  0.50048063
   0.75153810  0.75062996  0.50100069
   0.24837114  0.49910268  0.75043503
   0.50079115  0.24981759  0.74980132
   0.50050348  0.75094766  0.75066540
   0.75174903  0.49906567  0.75126069
   0.24903250  0.24997727  0.00131072
   0.24941766  0.74936035  0.00003732
   0.50063965  0.00058234 -0.00003732
   0.00002273  0.00096750  0.99868928
   0.24914687  0.49801855  0.24987968
   0.24881230  0.00349592  0.25228902
   0.49893576  0.24993717  0.25004668
   0.00051364  0.25051616  0.25183677
   0.24821477  0.24912874  0.49855766
   0.75332341  0.24970470  0.50029986
   0.00029530  0.49667659  0.49970014
   0.00087126  0.00178523  0.50144234
   0.24650408  0.00118770  0.74771098
   0.75198145  0.00085313  0.75012032
   0.99948384  0.24948636  0.74816323
   0.00006283  0.75106424  0.74995332
   0.50150825  0.49951699  0.00138185
   0.75079097  0.25103169  0.00011240
   0.75048301  0.74849175  0.99861815
   0.99896831  0.49920903  0.99988760
unknown system                          
           1
     6.943629   -0.000113   -0.000206
    -0.000113    6.943629   -0.000206
    -0.000206   -0.000206    6.945402
   Ni   Co
  16  16
Direct configuration=     6
   0.49905249  0.74949678  0.24933560
   0.75093419  0.49825190  0.24873966
   0.75089706  0.00162812  0.24956495
   0.00018203  0.74920885  0.25019893
   0.24844287  0.75083959  0.49951934
   0.49937015  0.49846292  0.49900001
   0.49916041  0.00155713  0.50048066
   0.75153708  0.75062985  0.50099999
   0.24837188  0.49910294  0.75043505
   0.50079115  0.24981797  0.74980107
   0.50050322  0.75094751  0.75066440
   0.75174810  0.49906581  0.75126034
   0.24903260  0.24997687  0.00131047
   0.24941808  0.74936037  0.00003739
   0.50063963  0.00058192 -0.00003739
   0.00002313  0.00096740  0.99868953
   0.24914748  0.49802113  0.24987992
   0.24881275  0.00349432  0.25228805
   0.49893645  0.24993593  0.25004686
   0.00051285  0.25051553  0.25183589
   0.24821714  0.24912930  0.49855894
   0.75332195  0.24970565  0.50030021
   0.00029435  0.49667805  0.49969979
   0.00087070  0.00178286  0.50144106
   0.24650568  0.00118725  0.74771195
   0.75197887  0.00085252  0.75012008
   0.99948447  0.24948715  0.74816411
   0.00006407  0.75106355  0.74995314
   0.50150770  0.49951780  0.00138014
   0.75079042  0.25103114  0.00011256
   0.75048220  0.74849230  0.99861986
   0.99896886  0.49920958  0.99988744
unknown system                          
           1
     6.943974   -0.000113   -0.000205
    -0.000113    6.943974   -0.000205
    -0.000205   -0.000205    6.945744
   Ni   Co
  16  16
Direct configuration=     7
   0.49905257  0.74949692  0.24933615
   0.75093411  0.49825241  0.24873986
   0.75089691  0.00162771  0.24956494
   0.00018182  0.74920885  0.25019907
   0.24844354  0.75083959  0.49951933
   0.49937021  0.49846348  0.49900040
   0.49916041  0.00155646  0.50048067
   0.75153652  0.75062979  0.50099960
   0.24837229  0.49910309  0.75043506
   0.50079115  0.24981818  0.74980093
   0.50050308  0.75094743  0.75066385
   0.75174759  0.49906589  0.75126014
   0.24903265  0.24997665  0.00131033
   0.24941832  0.74936038  0.00003743
   0.50063962  0.00058168 -0.00003743
   0.00002335  0.00096735  0.99868967
   0.24914783  0.49802256  0.24988006
   0.24881300  0.00349343  0.25228751
   0.49893683  0.24993524  0.25004696
   0.00051241  0.25051519  0.25183540
   0.24821846  0.24912962  0.49855965
   0.75332114  0.24970617  0.50030040
   0.00029383  0.49667886  0.49969960
   0.00087038  0.00178154  0.50144035
   0.24650657  0.00118700  0.74771249
   0.75197744  0.00085217  0.75011994
   0.99948481  0.24948759  0.74816460
   0.00006476  0.75106317  0.74995304
   0.50150740  0.49951824  0.00137919
   0.75079012  0.25103084  0.00011264
   0.75048176  0.74849260  0.99862081
   0.99896916  0.49920988  0.99988736
unknown system                          
           1
     6.943607   -0.000207   -0.000355
    -0.000207    6.943607   -0.000355
    -0.000355   -0.000355    6.948464
   Ni   Co
  16  16
Direct configuration=     8
   0.49905269  0.74949712  0.24933693
   0.75093400  0.49825314  0.24874014
   0.75089670  0.00162713  0.24956493
   0.00018152  0.74920886  0.25019927
   0.24844449  0.75083959  0.49951931
   0.49937029  0.49846428  0.49900095
   0.49916041  0.00155551  0.50048069
   0.75153572  0.75062971  0.50099905
   0.24837287  0.49910330  0.75043507
   0.50079114  0.24981848  0.74980073
   0.50050288  0.75094731  0.75066307
   0.75174686  0.49906600  0.75125986
   0.24903273  0.24997634  0.00131014
   0.24941865  0.74936039  0.00003749
   0.50063961  0.00058135 -0.00003749
   0.00002366  0.00096727  0.99868986
   0.24914831  0.49802458  0.24988025
   0.24881335  0.00349218  0.25228675
   0.49893736  0.24993427  0.25004711
   0.00051180  0.25051470  0.25183471
   0.24822032  0.24913006  0.49856066
   0.75331999  0.24970691  0.50030068
   0.00029309  0.49668001  0.49969932
   0.00086994  0.00177968  0.50143934
   0.24650782  0.00118665  0.74771325
   0.75197542  0.00085169  0.75011975
   0.99948530  0.24948820  0.74816529
   0.00006573  0.75106264  0.74995289
   0.50150696  0.49951888  0.00137785
   0.75078969  0.25103041  0.00011276
   0.75048112  0.74849304  0.99862215
   0.99896959  0.49921031  0.99988724
unknown system                          
           1
     6.943327   -0.000280   -0.000470
    -0.000280    6.943327   -0.000470
    -0.000470   -0.000470    6.950545
   Ni   Co
  16  16
Direct configuration=     9
   0.49904112  0.74945321  0.24868791
   0.75099981  0.49776621  0.24880109
   0.75105308  0.00196707  0.24960421
   0.00045384  0.74935810  0.24998755
   0.24764146  0.75063151  0.49956549
   0.49940639  0.49781666  0.49862977
   0.49936849  0.00235854  0.50043451
   0.75218334  0.75059361  0.50137023
   0.24803293  0.49894692  0.75039579
   0.50064190  0.24954616  0.75001245
   0.50054679  0.75095888  0.75131209
   0.75223379  0.49900019  0.75119891
   0.24899810  0.25022761  0.00113076
   0.24910292  0.74951412  0.00000937
   0.50048588  0.00089708 -0.00000937
  -0.00022761  0.00100190  0.99886924
   0.24866386  0.49611073  0.24965327
   0.24849725  0.00435581  0.25275116
   0.49860237  0.25091629  0.24989602
   0.00100152  0.25091560  0.25214489
   0.24655186  0.24888939  0.49783943
   0.75403015  0.24896203  0.49997830
   0.00103797  0.49596985  0.50002170
   0.00111061  0.00344814  0.50216057
   0.24564419  0.00150275  0.74724884
   0.75388927  0.00133614  0.75034673
   0.99908440  0.24899848  0.74785511
  -0.00091629  0.75139763  0.75010398
   0.50173528  0.49882690  0.00261220
   0.75122744  0.25129523 -0.00001663
   0.75117310  0.74826472  0.99738780
   0.99870477  0.49877256  0.00001663
unknown system                          
           1
     6.945603    0.000047    0.001051
     0.000047    6.945603    0.001051
     0.001053    0.001053    6.953006
   Ni   Co
  16  16
Direct configuration=    10
   0.49903225  0.74941961  0.24819153
   0.75105016  0.49739363  0.24884771
   0.75117274  0.00222719  0.24963426
   0.00066221  0.74947229  0.24982563
   0.24702702  0.75047229  0.49960080
   0.49943400  0.49732112  0.49834587
   0.49952771  0.00297298  0.50039920
   0.75267888  0.75056600  0.50165413
   0.24777281  0.49882726  0.75036574
   0.50052771  0.24933779  0.75017437
   0.50058039  0.75096775  0.75180847
   0.75260637  0.49894984  0.75115229
   0.24897160  0.25041987  0.00099357
   0.24886134  0.74963175 -0.00001213
   0.50036825  0.00113866  0.00001213
  -0.00041987  0.00102840  0.99900643
   0.24829316  0.49464632  0.24947963
   0.24825541  0.00501663  0.25310636
   0.49834606  0.25166768  0.24978047
   0.00137625  0.25122236  0.25238214
   0.24527522  0.24870521  0.49728779
   0.75457352  0.24839207  0.49973175
   0.00160793  0.49542648  0.50026825
   0.00129479  0.00472478  0.50271221
   0.24498337  0.00174459  0.74689364
   0.75535368  0.00170684  0.75052037
   0.99877764  0.24862375  0.74761786
  -0.00166768  0.75165394  0.75021953
   0.50191000  0.49829745  0.00355625
   0.75156239  0.25149785 -0.00011557
   0.75170255  0.74809000  0.99644375
   0.99850215  0.49843761  0.00011557
unknown system                          
           1
     6.946279    0.000144    0.001503
     0.000144    6.946279    0.001503
     0.001505    0.001505    6.953737
   Ni   Co
  16  16
Direct configuration=    11
   0.49895344  0.74950193  0.24817151
   0.75143597  0.49752878  0.24918128
   0.75117108  0.00221319  0.24954537
   0.00073885  0.74946529  0.24992639
   0.24691138  0.75043746  0.49954135
   0.49935329  0.49715598  0.49843825
   0.49956254  0.00308862  0.50045865
   0.75284402  0.75064671  0.50156175
   0.24778681  0.49882892  0.75045463
   0.50053471  0.24926115  0.75007361
   0.50049807  0.75104656  0.75182849
   0.75247122  0.49856403  0.75081872
   0.24875307  0.25021745  0.00046635
   0.24866944  0.74961425  0.00003872
   0.50038575  0.00133056 -0.00003872
  -0.00021745  0.00124693  0.99953365
   0.24805812  0.49438525  0.24935206
   0.24825895  0.00508186  0.25317081
   0.49842434  0.25160031  0.24979624
   0.00110931  0.25124730  0.25201246
   0.24516132  0.24878071  0.49749487
   0.75449708  0.24835933  0.49963216
   0.00164067  0.49550292  0.50036784
   0.00121929  0.00483868  0.50250513
   0.24491814  0.00174105  0.74682919
   0.75561475  0.00194188  0.75064794
   0.99875270  0.24889069  0.74798754
  -0.00160031  0.75157566  0.75020376
   0.50201948  0.49812522  0.00372389
   0.75173048  0.25153129 -0.00008755
   0.75187478  0.74798052  0.99627611
   0.99846871  0.49826952  0.00008755
unknown system                          
           1
     6.941941    0.000341    0.001552
     0.000341    6.941941    0.001552
     0.001555    0.001555    6.948693
   Ni   Co
  16  16
Direct configuration=    12
   0.49893004  0.74952638  0.24816557
   0.75155048  0.49756887  0.24928027
   0.75117059  0.00220904  0.24951898
   0.00076159  0.74946321  0.24995629
   0.24687705  0.75042713  0.49952371
   0.49932932  0.49710695  0.49846570
   0.49957287  0.00312295  0.50047629
   0.75289305  0.75067068  0.50153430
   0.24779096  0.49882941  0.75048102
   0.50053679  0.24923841  0.75004371
   0.50047362  0.75106996  0.75183443
   0.75243113  0.49844952  0.75071973
   0.24868823  0.25015739  0.00030986
   0.24861246  0.74960905  0.00005383
   0.50039095  0.00138754 -0.00005383
  -0.00015739  0.00131177  0.99969014
   0.24798836  0.49430775  0.24931421
   0.24826000  0.00510122  0.25318994
   0.49844758  0.25158031  0.24980092
   0.00103009  0.25125473  0.25190273
   0.24512749  0.24880311  0.49755635
   0.75447440  0.24834962  0.49960260
   0.00165038  0.49552560  0.50039740
   0.00119689  0.00487251  0.50244365
   0.24489878  0.00174000  0.74681006
   0.75569225  0.00201164  0.75068579
   0.99874527  0.24896991  0.74809727
  -0.00158031  0.75155242  0.75019908
   0.50205197  0.49807408  0.00377366
   0.75178038  0.25154121 -0.00007925
   0.75192592  0.74794803  0.99622634
   0.99845879  0.49821962  0.00007925
unknown system                          
           1
     6.943709    0.000261    0.001532
     0.000261    6.943709    0.001532
     0.001535    0.001535    6.950749
   Ni   Co
  16  16
Direct configuration=    13
   0.49883390  0.74956050  0.24817269
   0.75187598  0.49782291  0.24963534
   0.75109155  0.00210494  0.24940306
   0.00085677  0.74943262  0.25006677
   0.24685991  0.75041137  0.49944724
   0.49916366  0.49702582  0.49849270
   0.49958863  0.00314009  0.50055276
   0.75297418  0.75083634  0.50150730
   0.24789506  0.49890845  0.75059694
   0.50056738  0.24914323  0.74993323
   0.50043950  0.75116610  0.75182731
   0.75217709  0.49812402  0.75036466
   0.24858376  0.24994246 -0.00016978
   0.24846505  0.74955571  0.00012639
   0.50044429  0.00153495 -0.00012639
   0.00005754  0.00141624  0.00016978
   0.24780800  0.49406022  0.24913794
   0.24834924  0.00521620  0.25328466
   0.49849712  0.25147045  0.24978701
   0.00077712  0.25125691  0.25159135
   0.24501869  0.24890162  0.49778989
   0.75441322  0.24832650  0.49950078
   0.00167350  0.49558678  0.50049922
   0.00109838  0.00498131  0.50221011
   0.24478380  0.00165076  0.74671534
   0.75593978  0.00219200  0.75086206
   0.99874309  0.24922288  0.74840865
  -0.00147045  0.75150288  0.75021299
   0.50221139  0.49793777  0.00391968
   0.75183391  0.25161325  0.00001296
   0.75206223  0.74778861  0.99608032
   0.99838675  0.49816609 -0.00001296
unknown system                          
           1
     6.944190    0.000155    0.000578
     0.000155    6.944190    0.000578
     0.000580    0.000580    6.950413
   Ni   Co
  16  16
Direct configuration=    14
   0.49887311  0.74954658  0.24816979
   0.75174323  0.49771931  0.24949051
   0.75112379  0.00214740  0.24945034
   0.00081795  0.74944509  0.25002171
   0.24686690  0.75041780  0.49947843
   0.49923122  0.49705891  0.49848169
   0.49958220  0.00313310  0.50052157
   0.75294109  0.75076878  0.50151831
   0.24785260  0.49887621  0.75054966
   0.50055491  0.24918205  0.74997829
   0.50045342  0.75112689  0.75183021
   0.75228069  0.49825677  0.75050949
   0.24862636  0.25003011  0.00002586
   0.24852517  0.74957746  0.00009679
   0.50042254  0.00147483 -0.00009679
  -0.00003011  0.00137364 -0.00002586
   0.24788155  0.49416117  0.24920984
   0.24831285  0.00516931  0.25324602
   0.49847692  0.25151526  0.24979268
   0.00088029  0.25125602  0.25171835
   0.24506306  0.24886144  0.49769463
   0.75443817  0.24833593  0.49954231
   0.00166407  0.49556183  0.50045769
   0.00113856  0.00493694  0.50230537
   0.24483069  0.00168715  0.74675398
   0.75583883  0.00211845  0.75079016
   0.99874398  0.24911971  0.74828165
  -0.00151526  0.75152308  0.75020732
   0.50214637  0.49799336  0.00386012
   0.75181208  0.25158387 -0.00002465
   0.75200664  0.74785363  0.99613988
   0.99841613  0.49818792  0.00002465
unknown system                          
           1
     6.944190    0.000155    0.000578
     0.000155    6.944190    0.000578
     0.000580    0.000580    6.950413
   Ni   Co
  16  16
Direct configuration=    15
   0.49883490  0.74950914  0.24817466
   0.75174321  0.49787546  0.24959785
   0.75103509  0.00203689  0.24940167
   0.00086718  0.74942746  0.25005374
   0.24692939  0.75041986  0.49944478
   0.49911761  0.49711056  0.49840967
   0.49958014  0.00307061  0.50055522
   0.75288944  0.75088239  0.50159033
   0.24796311  0.49896491  0.75059833
   0.50057254  0.24913282  0.74994626
   0.50049086  0.75116510  0.75182534
   0.75212454  0.49825679  0.75040215
   0.24871358  0.24998640 -0.00003332
   0.24854783  0.74954401  0.00014033
   0.50045599  0.00145217 -0.00014033
   0.00001360  0.00128642  0.00003332
   0.24788357  0.49407956  0.24912185
   0.24840562  0.00524688  0.25329705
   0.49846026  0.25148388  0.24976853
   0.00085665  0.25124769  0.25170945
   0.24502043  0.24890368  0.49775633
   0.75443990  0.24831681  0.49950260
   0.00168319  0.49556010  0.50049740
   0.00109632  0.00497957  0.50224367
   0.24475312  0.00159438  0.74670295
   0.75592044  0.00211643  0.75087815
   0.99875231  0.24914335  0.74829055
  -0.00148388  0.75153974  0.75023147
   0.50222379  0.49798441  0.00389254
   0.75173266  0.25163899  0.00005088
   0.75201559  0.74777621  0.99610746
   0.99836101  0.49826734 -0.00005088
