   2   2   1   0
  0.2024040E+02  0.3854086E-09  0.3854086E-09  0.3854086E-09  0.5000000E-15
  1.000000000000000E-004
  CAR 
 unknown system                          
     31.16971679    -12.88672964 2001      3.65646599      1.00000000
    -12.887  0.0000E+00  0.0000E+00
    -12.865  0.0000E+00  0.0000E+00
    -12.843  0.0000E+00  0.0000E+00
    -12.821  0.0000E+00  0.0000E+00
    -12.799  0.0000E+00  0.0000E+00
    -12.777  0.0000E+00  0.0000E+00
    -12.755  0.0000E+00  0.0000E+00
    -12.733  0.0000E+00  0.0000E+00
    -12.711  0.0000E+00  0.0000E+00
    -12.688  0.0000E+00  0.0000E+00
    -12.666  0.0000E+00  0.0000E+00
    -12.644  0.0000E+00  0.0000E+00
    -12.622  0.0000E+00  0.0000E+00
    -12.600  0.0000E+00  0.0000E+00
    -12.578  0.0000E+00  0.0000E+00
    -12.556  0.0000E+00  0.0000E+00
    -12.534  0.0000E+00  0.0000E+00
    -12.512  0.0000E+00  0.0000E+00
    -12.490  0.0000E+00  0.0000E+00
    -12.468  0.0000E+00  0.0000E+00
    -12.446  0.0000E+00  0.0000E+00
    -12.424  0.0000E+00  0.0000E+00
    -12.402  0.0000E+00  0.0000E+00
    -12.380  0.0000E+00  0.0000E+00
    -12.358  0.0000E+00  0.0000E+00
    -12.336  0.0000E+00  0.0000E+00
    -12.314  0.0000E+00  0.0000E+00
    -12.292  0.0000E+00  0.0000E+00
    -12.270  0.0000E+00  0.0000E+00
    -12.248  0.0000E+00  0.0000E+00
    -12.226  0.0000E+00  0.0000E+00
    -12.204  0.0000E+00  0.0000E+00
    -12.182  0.0000E+00  0.0000E+00
    -12.160  0.0000E+00  0.0000E+00
    -12.138  0.0000E+00  0.0000E+00
    -12.116  0.0000E+00  0.0000E+00
    -12.094  0.0000E+00  0.0000E+00
    -12.072  0.0000E+00  0.0000E+00
    -12.050  0.3938E-16  0.8674E-18
    -12.028  0.7875E-16  0.2602E-17
    -12.006  0.2756E-15  0.8674E-17
    -11.984  0.9450E-15  0.2949E-16
    -11.962  0.3229E-14  0.1006E-15
    -11.940  0.1049E-13  0.3318E-15
    -11.917  0.3349E-13  0.1069E-14
    -11.895  0.1043E-12  0.3367E-14
    -11.873  0.3169E-12  0.1035E-13
    -11.851  0.9404E-12  0.3106E-13
    -11.829  0.2723E-11  0.9104E-13
    -11.807  0.7696E-11  0.2606E-12
    -11.785  0.2123E-10  0.7283E-12
    -11.763  0.5718E-10  0.1988E-11
    -11.741  0.1503E-09  0.5298E-11
    -11.719  0.3856E-09  0.1379E-10
    -11.697  0.9655E-09  0.3506E-10
    -11.675  0.2360E-08  0.8705E-10
    -11.653  0.5631E-08  0.2111E-09
    -11.631  0.1311E-07  0.4999E-09
    -11.609  0.2981E-07  0.1157E-08
    -11.587  0.6614E-07  0.2613E-08
    -11.565  0.1432E-06  0.5769E-08
    -11.543  0.3028E-06  0.1244E-07
    -11.521  0.6250E-06  0.2621E-07
    -11.499  0.1259E-05  0.5394E-07
    -11.477  0.2476E-05  0.1085E-06
    -11.455  0.4752E-05  0.2132E-06
    -11.433  0.8906E-05  0.4093E-06
    -11.411  0.1629E-04  0.7683E-06
    -11.389  0.2910E-04  0.1409E-05
    -11.367  0.5075E-04  0.2527E-05
    -11.345  0.8642E-04  0.4431E-05
    -11.323  0.1437E-03  0.7597E-05
    -11.301  0.2334E-03  0.1274E-04
    -11.279  0.3702E-03  0.2089E-04
    -11.257  0.5738E-03  0.3353E-04
    -11.235  0.8691E-03  0.5268E-04
    -11.213  0.1287E-02  0.8102E-04
    -11.191  0.1863E-02  0.1221E-03
    -11.169  0.2638E-02  0.1802E-03
    -11.147  0.3658E-02  0.2608E-03
    -11.124  0.4968E-02  0.3702E-03
    -11.102  0.6613E-02  0.5159E-03
    -11.080  0.8639E-02  0.7062E-03
    -11.058  0.1109E-01  0.9504E-03
    -11.036  0.1399E-01  0.1259E-02
    -11.014  0.1739E-01  0.1642E-02
    -10.992  0.2133E-01  0.2111E-02
    -10.970  0.2582E-01  0.2680E-02
    -10.948  0.3093E-01  0.3362E-02
    -10.926  0.3667E-01  0.4169E-02
    -10.904  0.4309E-01  0.5119E-02
    -10.882  0.5020E-01  0.6225E-02
    -10.860  0.5796E-01  0.7501E-02
    -10.838  0.6632E-01  0.8962E-02
    -10.816  0.7514E-01  0.1062E-01
    -10.794  0.8419E-01  0.1247E-01
    -10.772  0.9318E-01  0.1452E-01
    -10.750  0.1017E+00  0.1677E-01
    -10.728  0.1094E+00  0.1918E-01
    -10.706  0.1159E+00  0.2173E-01
    -10.684  0.1206E+00  0.2438E-01
    -10.662  0.1233E+00  0.2710E-01
    -10.640  0.1237E+00  0.2983E-01
    -10.618  0.1220E+00  0.3251E-01
    -10.596  0.1181E+00  0.3511E-01
    -10.574  0.1125E+00  0.3759E-01
    -10.552  0.1057E+00  0.3992E-01
    -10.530  0.9840E-01  0.4209E-01
    -10.508  0.9152E-01  0.4410E-01
    -10.486  0.8597E-01  0.4600E-01
    -10.464  0.8273E-01  0.4782E-01
    -10.442  0.8275E-01  0.4964E-01
    -10.420  0.8693E-01  0.5156E-01
    -10.398  0.9599E-01  0.5367E-01
    -10.376  0.1105E+00  0.5610E-01
    -10.353  0.1305E+00  0.5898E-01
    -10.331  0.1561E+00  0.6242E-01
    -10.309  0.1867E+00  0.6653E-01
    -10.287  0.2212E+00  0.7140E-01
    -10.265  0.2583E+00  0.7709E-01
    -10.243  0.2960E+00  0.8361E-01
    -10.221  0.3325E+00  0.9094E-01
    -10.199  0.3655E+00  0.9899E-01
    -10.177  0.3928E+00  0.1076E+00
    -10.155  0.4128E+00  0.1167E+00
    -10.133  0.4240E+00  0.1261E+00
    -10.111  0.4259E+00  0.1355E+00
    -10.089  0.4184E+00  0.1447E+00
    -10.067  0.4023E+00  0.1535E+00
    -10.045  0.3790E+00  0.1619E+00
    -10.023  0.3505E+00  0.1696E+00
    -10.001  0.3190E+00  0.1766E+00
     -9.979  0.2868E+00  0.1829E+00
     -9.957  0.2563E+00  0.1886E+00
     -9.935  0.2295E+00  0.1936E+00
     -9.913  0.2079E+00  0.1982E+00
     -9.891  0.1927E+00  0.2025E+00
     -9.869  0.1845E+00  0.2065E+00
     -9.847  0.1832E+00  0.2106E+00
     -9.825  0.1885E+00  0.2147E+00
     -9.803  0.1994E+00  0.2191E+00
     -9.781  0.2148E+00  0.2239E+00
     -9.759  0.2333E+00  0.2290E+00
     -9.737  0.2532E+00  0.2346E+00
     -9.715  0.2732E+00  0.2406E+00
     -9.693  0.2919E+00  0.2470E+00
     -9.671  0.3084E+00  0.2538E+00
     -9.649  0.3219E+00  0.2609E+00
     -9.627  0.3322E+00  0.2682E+00
     -9.605  0.3395E+00  0.2757E+00
     -9.582  0.3444E+00  0.2833E+00
     -9.560  0.3479E+00  0.2909E+00
     -9.538  0.3509E+00  0.2987E+00
     -9.516  0.3547E+00  0.3065E+00
     -9.494  0.3602E+00  0.3144E+00
     -9.472  0.3683E+00  0.3225E+00
     -9.450  0.3796E+00  0.3309E+00
     -9.428  0.3943E+00  0.3396E+00
     -9.406  0.4125E+00  0.3487E+00
     -9.384  0.4337E+00  0.3582E+00
     -9.362  0.4574E+00  0.3683E+00
     -9.340  0.4829E+00  0.3789E+00
     -9.318  0.5093E+00  0.3902E+00
     -9.296  0.5356E+00  0.4020E+00
     -9.274  0.5609E+00  0.4143E+00
     -9.252  0.5843E+00  0.4272E+00
     -9.230  0.6050E+00  0.4405E+00
     -9.208  0.6223E+00  0.4542E+00
     -9.186  0.6361E+00  0.4682E+00
     -9.164  0.6465E+00  0.4825E+00
     -9.142  0.6539E+00  0.4969E+00
     -9.120  0.6592E+00  0.5114E+00
     -9.098  0.6635E+00  0.5260E+00
     -9.076  0.6684E+00  0.5407E+00
     -9.054  0.6749E+00  0.5556E+00
     -9.032  0.6845E+00  0.5707E+00
     -9.010  0.6976E+00  0.5861E+00
     -8.988  0.7147E+00  0.6018E+00
     -8.966  0.7353E+00  0.6180E+00
     -8.944  0.7585E+00  0.6347E+00
     -8.922  0.7829E+00  0.6519E+00
     -8.900  0.8066E+00  0.6697E+00
     -8.878  0.8278E+00  0.6880E+00
     -8.856  0.8447E+00  0.7066E+00
     -8.834  0.8559E+00  0.7254E+00
     -8.812  0.8605E+00  0.7444E+00
     -8.789  0.8582E+00  0.7633E+00
     -8.767  0.8497E+00  0.7820E+00
     -8.745  0.8361E+00  0.8004E+00
     -8.723  0.8193E+00  0.8185E+00
     -8.701  0.8017E+00  0.8361E+00
     -8.679  0.7859E+00  0.8534E+00
     -8.657  0.7749E+00  0.8705E+00
     -8.635  0.7710E+00  0.8875E+00
     -8.613  0.7764E+00  0.9046E+00
     -8.591  0.7926E+00  0.9220E+00
     -8.569  0.8200E+00  0.9401E+00
     -8.547  0.8582E+00  0.9590E+00
     -8.525  0.9056E+00  0.9790E+00
     -8.503  0.9598E+00  0.1000E+01
     -8.481  0.1017E+01  0.1023E+01
     -8.459  0.1075E+01  0.1046E+01
     -8.437  0.1128E+01  0.1071E+01
     -8.415  0.1174E+01  0.1097E+01
     -8.393  0.1208E+01  0.1124E+01
     -8.371  0.1230E+01  0.1151E+01
     -8.349  0.1238E+01  0.1178E+01
     -8.327  0.1234E+01  0.1205E+01
     -8.305  0.1218E+01  0.1232E+01
     -8.283  0.1195E+01  0.1258E+01
     -8.261  0.1170E+01  0.1284E+01
     -8.239  0.1147E+01  0.1309E+01
     -8.217  0.1131E+01  0.1334E+01
     -8.195  0.1127E+01  0.1359E+01
     -8.173  0.1139E+01  0.1384E+01
     -8.151  0.1167E+01  0.1410E+01
     -8.129  0.1213E+01  0.1437E+01
     -8.107  0.1274E+01  0.1465E+01
     -8.085  0.1346E+01  0.1494E+01
     -8.063  0.1423E+01  0.1526E+01
     -8.041  0.1498E+01  0.1559E+01
     -8.018  0.1565E+01  0.1593E+01
     -7.996  0.1616E+01  0.1629E+01
     -7.974  0.1645E+01  0.1665E+01
     -7.952  0.1649E+01  0.1701E+01
     -7.930  0.1624E+01  0.1737E+01
     -7.908  0.1570E+01  0.1772E+01
     -7.886  0.1490E+01  0.1804E+01
     -7.864  0.1387E+01  0.1835E+01
     -7.842  0.1266E+01  0.1863E+01
     -7.820  0.1133E+01  0.1888E+01
     -7.798  0.9934E+00  0.1910E+01
     -7.776  0.8538E+00  0.1928E+01
     -7.754  0.7192E+00  0.1944E+01
     -7.732  0.5936E+00  0.1957E+01
     -7.710  0.4801E+00  0.1968E+01
     -7.688  0.3804E+00  0.1976E+01
     -7.666  0.2953E+00  0.1983E+01
     -7.644  0.2245E+00  0.1988E+01
     -7.622  0.1672E+00  0.1991E+01
     -7.600  0.1220E+00  0.1994E+01
     -7.578  0.8711E-01  0.1996E+01
     -7.556  0.6092E-01  0.1997E+01
     -7.534  0.4170E-01  0.1998E+01
     -7.512  0.2795E-01  0.1999E+01
     -7.490  0.1833E-01  0.1999E+01
     -7.468  0.1176E-01  0.2000E+01
     -7.446  0.7384E-02  0.2000E+01
     -7.424  0.4535E-02  0.2000E+01
     -7.402  0.2724E-02  0.2000E+01
     -7.380  0.1601E-02  0.2000E+01
     -7.358  0.9194E-03  0.2000E+01
     -7.336  0.5164E-03  0.2000E+01
     -7.314  0.2835E-03  0.2000E+01
     -7.292  0.1521E-03  0.2000E+01
     -7.270  0.7979E-04  0.2000E+01
     -7.248  0.4090E-04  0.2000E+01
     -7.225  0.2048E-04  0.2000E+01
     -7.203  0.1002E-04  0.2000E+01
     -7.181  0.4791E-05  0.2000E+01
     -7.159  0.2237E-05  0.2000E+01
     -7.137  0.1021E-05  0.2000E+01
     -7.115  0.4548E-06  0.2000E+01
     -7.093  0.1979E-06  0.2000E+01
     -7.071  0.8411E-07  0.2000E+01
     -7.049  0.3491E-07  0.2000E+01
     -7.027  0.1415E-07  0.2000E+01
     -7.005  0.5600E-08  0.2000E+01
     -6.983  0.2164E-08  0.2000E+01
     -6.961  0.8166E-09  0.2000E+01
     -6.939  0.3008E-09  0.2000E+01
     -6.917  0.1082E-09  0.2000E+01
     -6.895  0.3801E-10  0.2000E+01
     -6.873  0.1303E-10  0.2000E+01
     -6.851  0.4364E-11  0.2000E+01
     -6.829  0.1423E-11  0.2000E+01
     -6.807  0.4546E-12  0.2000E+01
     -6.785  0.1433E-12  0.2000E+01
     -6.763  0.4284E-13  0.2000E+01
     -6.741  0.1205E-13  0.2000E+01
     -6.719  0.4016E-14  0.2000E+01
     -6.697  0.1339E-14  0.2000E+01
     -6.675  0.0000E+00  0.2000E+01
     -6.653  0.0000E+00  0.2000E+01
     -6.631  0.0000E+00  0.2000E+01
     -6.609  0.0000E+00  0.2000E+01
     -6.587  0.0000E+00  0.2000E+01
     -6.565  0.0000E+00  0.2000E+01
     -6.543  0.0000E+00  0.2000E+01
     -6.521  0.0000E+00  0.2000E+01
     -6.499  0.0000E+00  0.2000E+01
     -6.477  0.0000E+00  0.2000E+01
     -6.454  0.0000E+00  0.2000E+01
     -6.432  0.0000E+00  0.2000E+01
     -6.410  0.0000E+00  0.2000E+01
     -6.388  0.0000E+00  0.2000E+01
     -6.366  0.0000E+00  0.2000E+01
     -6.344  0.0000E+00  0.2000E+01
     -6.322  0.0000E+00  0.2000E+01
     -6.300  0.0000E+00  0.2000E+01
     -6.278  0.0000E+00  0.2000E+01
     -6.256  0.0000E+00  0.2000E+01
     -6.234  0.0000E+00  0.2000E+01
     -6.212  0.0000E+00  0.2000E+01
     -6.190  0.0000E+00  0.2000E+01
     -6.168  0.0000E+00  0.2000E+01
     -6.146  0.0000E+00  0.2000E+01
     -6.124  0.0000E+00  0.2000E+01
     -6.102  0.0000E+00  0.2000E+01
     -6.080  0.0000E+00  0.2000E+01
     -6.058  0.0000E+00  0.2000E+01
     -6.036  0.0000E+00  0.2000E+01
     -6.014  0.0000E+00  0.2000E+01
     -5.992  0.0000E+00  0.2000E+01
     -5.970  0.0000E+00  0.2000E+01
     -5.948  0.0000E+00  0.2000E+01
     -5.926  0.0000E+00  0.2000E+01
     -5.904  0.0000E+00  0.2000E+01
     -5.882  0.0000E+00  0.2000E+01
     -5.860  0.0000E+00  0.2000E+01
     -5.838  0.0000E+00  0.2000E+01
     -5.816  0.0000E+00  0.2000E+01
     -5.794  0.0000E+00  0.2000E+01
     -5.772  0.0000E+00  0.2000E+01
     -5.750  0.0000E+00  0.2000E+01
     -5.728  0.0000E+00  0.2000E+01
     -5.706  0.0000E+00  0.2000E+01
     -5.684  0.0000E+00  0.2000E+01
     -5.661  0.0000E+00  0.2000E+01
     -5.639  0.0000E+00  0.2000E+01
     -5.617  0.0000E+00  0.2000E+01
     -5.595  0.0000E+00  0.2000E+01
     -5.573  0.0000E+00  0.2000E+01
     -5.551  0.0000E+00  0.2000E+01
     -5.529  0.0000E+00  0.2000E+01
     -5.507  0.0000E+00  0.2000E+01
     -5.485  0.1181E-15  0.2000E+01
     -5.463  0.2363E-15  0.2000E+01
     -5.441  0.8859E-15  0.2000E+01
     -5.419  0.3130E-14  0.2000E+01
     -5.397  0.1040E-13  0.2000E+01
     -5.375  0.3396E-13  0.2000E+01
     -5.353  0.1084E-12  0.2000E+01
     -5.331  0.3370E-12  0.2000E+01
     -5.309  0.1023E-11  0.2000E+01
     -5.287  0.3032E-11  0.2000E+01
     -5.265  0.8772E-11  0.2000E+01
     -5.243  0.2478E-10  0.2000E+01
     -5.221  0.6831E-10  0.2000E+01
     -5.199  0.1838E-09  0.2000E+01
     -5.177  0.4830E-09  0.2000E+01
     -5.155  0.1239E-08  0.2000E+01
     -5.133  0.3103E-08  0.2000E+01
     -5.111  0.7588E-08  0.2000E+01
     -5.089  0.1812E-07  0.2000E+01
     -5.067  0.4223E-07  0.2000E+01
     -5.045  0.9614E-07  0.2000E+01
     -5.023  0.2137E-06  0.2000E+01
     -5.001  0.4641E-06  0.2000E+01
     -4.979  0.9842E-06  0.2000E+01
     -4.957  0.2039E-05  0.2000E+01
     -4.935  0.4128E-05  0.2000E+01
     -4.913  0.8165E-05  0.2000E+01
     -4.890  0.1579E-04  0.2000E+01
     -4.868  0.2983E-04  0.2000E+01
     -4.846  0.5514E-04  0.2000E+01
     -4.824  0.9967E-04  0.2000E+01
     -4.802  0.1763E-03  0.2000E+01
     -4.780  0.3052E-03  0.2000E+01
     -4.758  0.5175E-03  0.2000E+01
     -4.736  0.8597E-03  0.2000E+01
     -4.714  0.1400E-02  0.2000E+01
     -4.692  0.2236E-02  0.2000E+01
     -4.670  0.3506E-02  0.2000E+01
     -4.648  0.5400E-02  0.2000E+01
     -4.626  0.8176E-02  0.2001E+01
     -4.604  0.1218E-01  0.2001E+01
     -4.582  0.1786E-01  0.2001E+01
     -4.560  0.2580E-01  0.2002E+01
     -4.538  0.3676E-01  0.2003E+01
     -4.516  0.5165E-01  0.2004E+01
     -4.494  0.7164E-01  0.2005E+01
     -4.472  0.9810E-01  0.2007E+01
     -4.450  0.1327E+00  0.2010E+01
     -4.428  0.1771E+00  0.2014E+01
     -4.406  0.2335E+00  0.2019E+01
     -4.384  0.3038E+00  0.2026E+01
     -4.362  0.3900E+00  0.2035E+01
     -4.340  0.4937E+00  0.2046E+01
     -4.318  0.6160E+00  0.2059E+01
     -4.296  0.7572E+00  0.2076E+01
     -4.274  0.9163E+00  0.2096E+01
     -4.252  0.1091E+01  0.2120E+01
     -4.230  0.1278E+01  0.2148E+01
     -4.208  0.1472E+01  0.2181E+01
     -4.186  0.1666E+01  0.2217E+01
     -4.164  0.1854E+01  0.2258E+01
     -4.142  0.2026E+01  0.2303E+01
     -4.119  0.2177E+01  0.2351E+01
     -4.097  0.2298E+01  0.2401E+01
     -4.075  0.2386E+01  0.2454E+01
     -4.053  0.2436E+01  0.2508E+01
     -4.031  0.2449E+01  0.2562E+01
     -4.009  0.2426E+01  0.2615E+01
     -3.987  0.2371E+01  0.2667E+01
     -3.965  0.2289E+01  0.2718E+01
     -3.943  0.2186E+01  0.2766E+01
     -3.921  0.2069E+01  0.2811E+01
     -3.899  0.1945E+01  0.2854E+01
     -3.877  0.1817E+01  0.2894E+01
     -3.855  0.1690E+01  0.2931E+01
     -3.833  0.1567E+01  0.2966E+01
     -3.811  0.1448E+01  0.2998E+01
     -3.789  0.1333E+01  0.3027E+01
     -3.767  0.1223E+01  0.3054E+01
     -3.745  0.1117E+01  0.3079E+01
     -3.723  0.1015E+01  0.3101E+01
     -3.701  0.9171E+00  0.3121E+01
     -3.679  0.8247E+00  0.3139E+01
     -3.657  0.7392E+00  0.3156E+01
     -3.635  0.6623E+00  0.3170E+01
     -3.613  0.5958E+00  0.3183E+01
     -3.591  0.5412E+00  0.3195E+01
     -3.569  0.4995E+00  0.3206E+01
     -3.547  0.4708E+00  0.3217E+01
     -3.525  0.4545E+00  0.3227E+01
     -3.503  0.4493E+00  0.3237E+01
     -3.481  0.4529E+00  0.3247E+01
     -3.459  0.4628E+00  0.3257E+01
     -3.437  0.4759E+00  0.3267E+01
     -3.415  0.4895E+00  0.3278E+01
     -3.393  0.5009E+00  0.3289E+01
     -3.371  0.5078E+00  0.3300E+01
     -3.349  0.5088E+00  0.3312E+01
     -3.326  0.5029E+00  0.3323E+01
     -3.304  0.4900E+00  0.3333E+01
     -3.282  0.4708E+00  0.3344E+01
     -3.260  0.4464E+00  0.3354E+01
     -3.238  0.4186E+00  0.3363E+01
     -3.216  0.3891E+00  0.3371E+01
     -3.194  0.3599E+00  0.3379E+01
     -3.172  0.3329E+00  0.3387E+01
     -3.150  0.3094E+00  0.3394E+01
     -3.128  0.2904E+00  0.3400E+01
     -3.106  0.2764E+00  0.3406E+01
     -3.084  0.2676E+00  0.3412E+01
     -3.062  0.2633E+00  0.3418E+01
     -3.040  0.2629E+00  0.3423E+01
     -3.018  0.2655E+00  0.3429E+01
     -2.996  0.2700E+00  0.3435E+01
     -2.974  0.2755E+00  0.3441E+01
     -2.952  0.2814E+00  0.3448E+01
     -2.930  0.2870E+00  0.3454E+01
     -2.908  0.2923E+00  0.3460E+01
     -2.886  0.2970E+00  0.3467E+01
     -2.864  0.3013E+00  0.3473E+01
     -2.842  0.3054E+00  0.3480E+01
     -2.820  0.3096E+00  0.3487E+01
     -2.798  0.3143E+00  0.3494E+01
     -2.776  0.3198E+00  0.3501E+01
     -2.754  0.3265E+00  0.3508E+01
     -2.732  0.3347E+00  0.3516E+01
     -2.710  0.3447E+00  0.3523E+01
     -2.688  0.3566E+00  0.3531E+01
     -2.666  0.3704E+00  0.3539E+01
     -2.644  0.3858E+00  0.3548E+01
     -2.622  0.4021E+00  0.3557E+01
     -2.600  0.4184E+00  0.3566E+01
     -2.578  0.4334E+00  0.3575E+01
     -2.555  0.4456E+00  0.3585E+01
     -2.533  0.4536E+00  0.3595E+01
     -2.511  0.4561E+00  0.3605E+01
     -2.489  0.4520E+00  0.3615E+01
     -2.467  0.4411E+00  0.3625E+01
     -2.445  0.4235E+00  0.3634E+01
     -2.423  0.4001E+00  0.3643E+01
     -2.401  0.3722E+00  0.3651E+01
     -2.379  0.3418E+00  0.3659E+01
     -2.357  0.3110E+00  0.3666E+01
     -2.335  0.2817E+00  0.3672E+01
     -2.313  0.2559E+00  0.3677E+01
     -2.291  0.2350E+00  0.3683E+01
     -2.269  0.2198E+00  0.3687E+01
     -2.247  0.2107E+00  0.3692E+01
     -2.225  0.2072E+00  0.3697E+01
     -2.203  0.2085E+00  0.3701E+01
     -2.181  0.2134E+00  0.3706E+01
     -2.159  0.2202E+00  0.3711E+01
     -2.137  0.2275E+00  0.3716E+01
     -2.115  0.2336E+00  0.3721E+01
     -2.093  0.2376E+00  0.3726E+01
     -2.071  0.2384E+00  0.3731E+01
     -2.049  0.2357E+00  0.3737E+01
     -2.027  0.2296E+00  0.3742E+01
     -2.005  0.2202E+00  0.3746E+01
     -1.983  0.2084E+00  0.3751E+01
     -1.961  0.1949E+00  0.3755E+01
     -1.939  0.1804E+00  0.3759E+01
     -1.917  0.1657E+00  0.3763E+01
     -1.895  0.1514E+00  0.3766E+01
     -1.873  0.1378E+00  0.3769E+01
     -1.851  0.1254E+00  0.3772E+01
     -1.829  0.1141E+00  0.3775E+01
     -1.807  0.1041E+00  0.3777E+01
     -1.785  0.9550E-01  0.3779E+01
     -1.762  0.8846E-01  0.3781E+01
     -1.740  0.8331E-01  0.3783E+01
     -1.718  0.8051E-01  0.3785E+01
     -1.696  0.8068E-01  0.3786E+01
     -1.674  0.8457E-01  0.3788E+01
     -1.652  0.9299E-01  0.3790E+01
     -1.630  0.1067E+00  0.3793E+01
     -1.608  0.1266E+00  0.3795E+01
     -1.586  0.1530E+00  0.3799E+01
     -1.564  0.1865E+00  0.3803E+01
     -1.542  0.2270E+00  0.3808E+01
     -1.520  0.2744E+00  0.3814E+01
     -1.498  0.3281E+00  0.3821E+01
     -1.476  0.3877E+00  0.3830E+01
     -1.454  0.4524E+00  0.3840E+01
     -1.432  0.5217E+00  0.3851E+01
     -1.410  0.5950E+00  0.3864E+01
     -1.388  0.6723E+00  0.3879E+01
     -1.366  0.7535E+00  0.3896E+01
     -1.344  0.8386E+00  0.3914E+01
     -1.322  0.9275E+00  0.3935E+01
     -1.300  0.1020E+01  0.3957E+01
     -1.278  0.1114E+01  0.3982E+01
     -1.256  0.1208E+01  0.4008E+01
     -1.234  0.1299E+01  0.4037E+01
     -1.212  0.1383E+01  0.4067E+01
     -1.190  0.1455E+01  0.4099E+01
     -1.168  0.1510E+01  0.4133E+01
     -1.146  0.1544E+01  0.4167E+01
     -1.124  0.1554E+01  0.4201E+01
     -1.102  0.1538E+01  0.4235E+01
     -1.080  0.1496E+01  0.4268E+01
     -1.058  0.1429E+01  0.4299E+01
     -1.036  0.1343E+01  0.4329E+01
     -1.014  0.1242E+01  0.4356E+01
     -0.991  0.1133E+01  0.4381E+01
     -0.969  0.1025E+01  0.4404E+01
     -0.947  0.9226E+00  0.4424E+01
     -0.925  0.8337E+00  0.4442E+01
     -0.903  0.7630E+00  0.4459E+01
     -0.881  0.7143E+00  0.4475E+01
     -0.859  0.6898E+00  0.4490E+01
     -0.837  0.6903E+00  0.4505E+01
     -0.815  0.7149E+00  0.4521E+01
     -0.793  0.7620E+00  0.4538E+01
     -0.771  0.8285E+00  0.4556E+01
     -0.749  0.9107E+00  0.4576E+01
     -0.727  0.1004E+01  0.4598E+01
     -0.705  0.1104E+01  0.4623E+01
     -0.683  0.1206E+01  0.4649E+01
     -0.661  0.1303E+01  0.4678E+01
     -0.639  0.1392E+01  0.4708E+01
     -0.617  0.1467E+01  0.4741E+01
     -0.595  0.1525E+01  0.4774E+01
     -0.573  0.1563E+01  0.4809E+01
     -0.551  0.1578E+01  0.4844E+01
     -0.529  0.1570E+01  0.4878E+01
     -0.507  0.1540E+01  0.4912E+01
     -0.485  0.1488E+01  0.4945E+01
     -0.463  0.1418E+01  0.4976E+01
     -0.441  0.1332E+01  0.5005E+01
     -0.419  0.1235E+01  0.5033E+01
     -0.397  0.1131E+01  0.5058E+01
     -0.375  0.1023E+01  0.5080E+01
     -0.353  0.9177E+00  0.5100E+01
     -0.331  0.8181E+00  0.5118E+01
     -0.309  0.7287E+00  0.5134E+01
     -0.287  0.6533E+00  0.5149E+01
     -0.265  0.5951E+00  0.5162E+01
     -0.243  0.5568E+00  0.5174E+01
     -0.221  0.5401E+00  0.5186E+01
     -0.198  0.5458E+00  0.5198E+01
     -0.176  0.5737E+00  0.5211E+01
     -0.154  0.6223E+00  0.5224E+01
     -0.132  0.6892E+00  0.5240E+01
     -0.110  0.7708E+00  0.5257E+01
     -0.088  0.8627E+00  0.5276E+01
     -0.066  0.9603E+00  0.5297E+01
     -0.044  0.1059E+01  0.5320E+01
     -0.022  0.1153E+01  0.5345E+01
     -0.000  0.1240E+01  0.5373E+01
      0.022  0.1316E+01  0.5402E+01
      0.044  0.1380E+01  0.5432E+01
      0.066  0.1430E+01  0.5464E+01
      0.088  0.1466E+01  0.5496E+01
      0.110  0.1491E+01  0.5529E+01
      0.132  0.1504E+01  0.5562E+01
      0.154  0.1508E+01  0.5595E+01
      0.176  0.1505E+01  0.5628E+01
      0.198  0.1495E+01  0.5661E+01
      0.220  0.1482E+01  0.5694E+01
      0.242  0.1464E+01  0.5726E+01
      0.264  0.1445E+01  0.5758E+01
      0.286  0.1425E+01  0.5789E+01
      0.308  0.1404E+01  0.5820E+01
      0.330  0.1384E+01  0.5851E+01
      0.352  0.1366E+01  0.5881E+01
      0.374  0.1352E+01  0.5911E+01
      0.396  0.1342E+01  0.5940E+01
      0.418  0.1339E+01  0.5970E+01
      0.440  0.1343E+01  0.5999E+01
      0.462  0.1356E+01  0.6029E+01
      0.484  0.1378E+01  0.6059E+01
      0.506  0.1409E+01  0.6090E+01
      0.528  0.1448E+01  0.6122E+01
      0.550  0.1493E+01  0.6155E+01
      0.573  0.1542E+01  0.6189E+01
      0.595  0.1589E+01  0.6224E+01
      0.617  0.1632E+01  0.6260E+01
      0.639  0.1665E+01  0.6297E+01
      0.661  0.1685E+01  0.6334E+01
      0.683  0.1688E+01  0.6371E+01
      0.705  0.1673E+01  0.6408E+01
      0.727  0.1641E+01  0.6444E+01
      0.749  0.1593E+01  0.6479E+01
      0.771  0.1532E+01  0.6513E+01
      0.793  0.1464E+01  0.6545E+01
      0.815  0.1393E+01  0.6576E+01
      0.837  0.1326E+01  0.6605E+01
      0.859  0.1267E+01  0.6633E+01
      0.881  0.1219E+01  0.6660E+01
      0.903  0.1184E+01  0.6686E+01
      0.925  0.1162E+01  0.6712E+01
      0.947  0.1151E+01  0.6737E+01
      0.969  0.1148E+01  0.6762E+01
      0.991  0.1149E+01  0.6787E+01
      1.013  0.1150E+01  0.6813E+01
      1.035  0.1148E+01  0.6838E+01
      1.057  0.1139E+01  0.6863E+01
      1.079  0.1123E+01  0.6888E+01
      1.101  0.1098E+01  0.6912E+01
      1.123  0.1066E+01  0.6936E+01
      1.145  0.1029E+01  0.6958E+01
      1.167  0.9884E+00  0.6980E+01
      1.189  0.9471E+00  0.7001E+01
      1.211  0.9075E+00  0.7021E+01
      1.233  0.8716E+00  0.7040E+01
      1.255  0.8407E+00  0.7059E+01
      1.277  0.8157E+00  0.7077E+01
      1.299  0.7970E+00  0.7094E+01
      1.321  0.7850E+00  0.7111E+01
      1.344  0.7800E+00  0.7129E+01
      1.366  0.7824E+00  0.7146E+01
      1.388  0.7928E+00  0.7163E+01
      1.410  0.8120E+00  0.7181E+01
      1.432  0.8407E+00  0.7200E+01
      1.454  0.8794E+00  0.7219E+01
      1.476  0.9279E+00  0.7240E+01
      1.498  0.9850E+00  0.7261E+01
      1.520  0.1049E+01  0.7284E+01
      1.542  0.1116E+01  0.7309E+01
      1.564  0.1183E+01  0.7335E+01
      1.586  0.1245E+01  0.7362E+01
      1.608  0.1297E+01  0.7391E+01
      1.630  0.1335E+01  0.7420E+01
      1.652  0.1356E+01  0.7450E+01
      1.674  0.1356E+01  0.7480E+01
      1.696  0.1336E+01  0.7510E+01
      1.718  0.1294E+01  0.7538E+01
      1.740  0.1234E+01  0.7565E+01
      1.762  0.1158E+01  0.7591E+01
      1.784  0.1071E+01  0.7614E+01
      1.806  0.9769E+00  0.7636E+01
      1.828  0.8816E+00  0.7655E+01
      1.850  0.7899E+00  0.7673E+01
      1.872  0.7059E+00  0.7688E+01
      1.894  0.6335E+00  0.7702E+01
      1.916  0.5751E+00  0.7715E+01
      1.938  0.5322E+00  0.7727E+01
      1.960  0.5049E+00  0.7738E+01
      1.982  0.4922E+00  0.7749E+01
      2.004  0.4921E+00  0.7759E+01
      2.026  0.5016E+00  0.7770E+01
      2.048  0.5171E+00  0.7782E+01
      2.070  0.5349E+00  0.7794E+01
      2.092  0.5509E+00  0.7806E+01
      2.114  0.5619E+00  0.7818E+01
      2.137  0.5651E+00  0.7831E+01
      2.159  0.5587E+00  0.7843E+01
      2.181  0.5420E+00  0.7855E+01
      2.203  0.5154E+00  0.7866E+01
      2.225  0.4799E+00  0.7877E+01
      2.247  0.4378E+00  0.7886E+01
      2.269  0.3914E+00  0.7895E+01
      2.291  0.3435E+00  0.7903E+01
      2.313  0.2967E+00  0.7909E+01
      2.335  0.2533E+00  0.7915E+01
      2.357  0.2152E+00  0.7919E+01
      2.379  0.1834E+00  0.7923E+01
      2.401  0.1588E+00  0.7927E+01
      2.423  0.1413E+00  0.7930E+01
      2.445  0.1305E+00  0.7933E+01
      2.467  0.1254E+00  0.7936E+01
      2.489  0.1251E+00  0.7938E+01
      2.511  0.1281E+00  0.7941E+01
      2.533  0.1332E+00  0.7944E+01
      2.555  0.1391E+00  0.7947E+01
      2.577  0.1448E+00  0.7950E+01
      2.599  0.1495E+00  0.7954E+01
      2.621  0.1526E+00  0.7957E+01
      2.643  0.1537E+00  0.7961E+01
      2.665  0.1529E+00  0.7964E+01
      2.687  0.1502E+00  0.7967E+01
      2.709  0.1459E+00  0.7970E+01
      2.731  0.1402E+00  0.7974E+01
      2.753  0.1336E+00  0.7976E+01
      2.775  0.1262E+00  0.7979E+01
      2.797  0.1184E+00  0.7982E+01
      2.819  0.1102E+00  0.7984E+01
      2.841  0.1017E+00  0.7987E+01
      2.863  0.9308E-01  0.7989E+01
      2.885  0.8428E-01  0.7990E+01
      2.908  0.7542E-01  0.7992E+01
      2.930  0.6657E-01  0.7994E+01
      2.952  0.5788E-01  0.7995E+01
      2.974  0.4950E-01  0.7996E+01
      2.996  0.4157E-01  0.7997E+01
      3.018  0.3424E-01  0.7998E+01
      3.040  0.2765E-01  0.7998E+01
      3.062  0.2186E-01  0.7999E+01
      3.084  0.1691E-01  0.7999E+01
      3.106  0.1279E-01  0.7999E+01
      3.128  0.9463E-02  0.8000E+01
      3.150  0.6841E-02  0.8000E+01
      3.172  0.4831E-02  0.8000E+01
      3.194  0.3333E-02  0.8000E+01
      3.216  0.2245E-02  0.8000E+01
      3.238  0.1477E-02  0.8000E+01
      3.260  0.9489E-03  0.8000E+01
      3.282  0.5952E-03  0.8000E+01
      3.304  0.3644E-03  0.8000E+01
      3.326  0.2178E-03  0.8000E+01
      3.348  0.1271E-03  0.8000E+01
      3.370  0.7241E-04  0.8000E+01
      3.392  0.4026E-04  0.8000E+01
      3.414  0.2185E-04  0.8000E+01
      3.436  0.1158E-04  0.8000E+01
      3.458  0.5987E-05  0.8000E+01
      3.480  0.3022E-05  0.8000E+01
      3.502  0.1489E-05  0.8000E+01
      3.524  0.7162E-06  0.8000E+01
      3.546  0.3362E-06  0.8000E+01
      3.568  0.1541E-06  0.8000E+01
      3.590  0.6890E-07  0.8000E+01
      3.612  0.3008E-07  0.8000E+01
      3.634  0.1282E-07  0.8000E+01
      3.656  0.5331E-08  0.8000E+01
      3.678  0.2164E-08  0.8000E+01
      3.701  0.8576E-09  0.8000E+01
      3.723  0.3317E-09  0.8000E+01
      3.745  0.1252E-09  0.8000E+01
      3.767  0.4615E-10  0.8000E+01
      3.789  0.1660E-10  0.8000E+01
      3.811  0.5827E-11  0.8000E+01
      3.833  0.1997E-11  0.8000E+01
      3.855  0.6679E-12  0.8000E+01
      3.877  0.2181E-12  0.8000E+01
      3.899  0.6946E-13  0.8000E+01
      3.921  0.2174E-13  0.8000E+01
      3.943  0.6497E-14  0.8000E+01
      3.965  0.2008E-14  0.8000E+01
      3.987  0.4725E-15  0.8000E+01
      4.009  0.2363E-15  0.8000E+01
      4.031  0.0000E+00  0.8000E+01
      4.053  0.1969E-16  0.8000E+01
      4.075  0.1969E-16  0.8000E+01
      4.097  0.9844E-16  0.8000E+01
      4.119  0.3544E-15  0.8000E+01
      4.141  0.1181E-14  0.8000E+01
      4.163  0.3938E-14  0.8000E+01
      4.185  0.1286E-13  0.8000E+01
      4.207  0.4079E-13  0.8000E+01
      4.229  0.1266E-12  0.8000E+01
      4.251  0.3831E-12  0.8000E+01
      4.273  0.1132E-11  0.8000E+01
      4.295  0.3264E-11  0.8000E+01
      4.317  0.9187E-11  0.8000E+01
      4.339  0.2524E-10  0.8000E+01
      4.361  0.6769E-10  0.8000E+01
      4.383  0.1772E-09  0.8000E+01
      4.405  0.4528E-09  0.8000E+01
      4.427  0.1129E-08  0.8000E+01
      4.449  0.2749E-08  0.8000E+01
      4.472  0.6534E-08  0.8000E+01
      4.494  0.1516E-07  0.8000E+01
      4.516  0.3432E-07  0.8000E+01
      4.538  0.7588E-07  0.8000E+01
      4.560  0.1637E-06  0.8000E+01
      4.582  0.3449E-06  0.8000E+01
      4.604  0.7095E-06  0.8000E+01
      4.626  0.1425E-05  0.8000E+01
      4.648  0.2793E-05  0.8000E+01
      4.670  0.5348E-05  0.8000E+01
      4.692  0.9998E-05  0.8000E+01
      4.714  0.1826E-04  0.8000E+01
      4.736  0.3257E-04  0.8000E+01
      4.758  0.5675E-04  0.8000E+01
      4.780  0.9666E-04  0.8000E+01
      4.802  0.1609E-03  0.8000E+01
      4.824  0.2621E-03  0.8000E+01
      4.846  0.4175E-03  0.8000E+01
      4.868  0.6511E-03  0.8000E+01
      4.890  0.9949E-03  0.8000E+01
      4.912  0.1490E-02  0.8000E+01
      4.934  0.2192E-02  0.8000E+01
      4.956  0.3167E-02  0.8000E+01
      4.978  0.4503E-02  0.8000E+01
      5.000  0.6310E-02  0.8000E+01
      5.022  0.8727E-02  0.8001E+01
      5.044  0.1193E-01  0.8001E+01
      5.066  0.1615E-01  0.8001E+01
      5.088  0.2167E-01  0.8002E+01
      5.110  0.2886E-01  0.8002E+01
      5.132  0.3814E-01  0.8003E+01
      5.154  0.5003E-01  0.8004E+01
      5.176  0.6511E-01  0.8006E+01
      5.198  0.8398E-01  0.8008E+01
      5.220  0.1072E+00  0.8010E+01
      5.242  0.1354E+00  0.8013E+01
      5.265  0.1687E+00  0.8017E+01
      5.287  0.2073E+00  0.8021E+01