    2    2    1    1
  0.2024040E+02  0.3854086E-09  0.3854086E-09  0.3854086E-09  0.5000000E-15
  1.000000000000000E-004
  CAR 
 unknown system                          
      8     84     16
 
  0.0000000E+00  0.0000000E+00  0.0000000E+00  0.3906250E-02
    1      -10.884164   1.000000
    2        2.836371   1.000000
    3        2.836371   1.000000
    4        2.836373   1.000000
    5        5.730615   0.000000
    6        7.725309   0.000000
    7        7.725309   0.000000
    8        7.725309   0.000000
    9       12.793136   0.000000
   10       13.722595   0.000000
   11       13.722595   0.000000
   12       16.419886   0.000000
   13       16.419886   0.000000
   14       16.419886   0.000000
   15       19.708586   0.000000
   16       29.167151   0.000000
 
  0.1250000E+00  0.0000000E+00  0.0000000E+00  0.1171875E-01
    1      -10.678344   1.000000
    2        1.160808   1.000000
    3        2.601486   1.000000
    4        2.601487   1.000000
    5        6.318065   0.000000
    6        8.094394   0.000000
    7        8.094395   0.000000
    8        8.318755   0.000000
    9       13.057178   0.000000
   10       13.057179   0.000000
   11       13.740850   0.000000
   12       15.729725   0.000000
   13       17.805063   0.000000
   14       17.805064   0.000000
   15       21.210565   0.000000
   16       26.929744   0.000000
 
  0.2500000E+00  0.0000000E+00  0.0000000E+00  0.1953125E-01
    1      -10.090435   1.000000
    2       -1.314698   1.000000
    3        2.151010   1.000000
    4        2.151011   1.000000
    5        5.959786   0.000000
    6        8.613002   0.000000
    7        8.613004   0.000000
    8       10.342478   0.000000
    9       12.884468   0.000000
   10       12.884471   0.000000
   11       13.859812   0.000000
   12       17.223154   0.000000
   13       20.382975   0.000000
   14       20.383018   0.000000
   15       23.294541   0.000000
   16       23.480593   0.000000
 
  0.3750000E+00  0.0000000E+00  0.0000000E+00  0.1953125E-01
    1       -9.269896   1.000000
    2       -3.393116   1.000000
    3        1.799960   1.000000
    4        1.799961   1.000000
    5        5.558426   0.000000
    6        8.615928   0.000000
    7        8.615932   0.000000
    8       11.999491   0.000000
    9       13.878617   0.000000
   10       14.201191   0.000000
   11       14.201196   0.000000
   12       19.339661   0.000000
   13       19.839879   0.000000
   14       19.839883   0.000000
   15       21.966075   0.000000
   16       23.861718   0.000000
 
  0.5000000E+00  0.0000000E+00  0.0000000E+00  0.1171875E-01
    1       -8.776143   1.000000
    2       -4.321153   1.000000
    3        1.673962   1.000000
    4        1.673963   1.000000
    5        5.413074   0.000000
    6        8.522489   0.000000
    7        8.522493   0.000000
    8       12.175012   0.000000
    9       15.060582   0.000000
   10       15.879905   0.000000
   11       15.879906   0.000000
   12       17.624314   0.000000
   13       17.624316   0.000000
   14       18.062805   0.000000
   15       24.593552   0.000000
   16       26.592233   0.000000
 
  0.1250000E+00  0.1250000E+00  0.0000000E+00  0.9765625E-02
    1      -10.609023   1.000000
    2        1.270947   1.000000
    3        2.160799   1.000000
    4        2.160800   1.000000
    5        6.827587   0.000000
    6        7.307009   0.000000
    7        8.723297   0.000000
    8        8.723297   0.000000
    9       11.943696   0.000000
   10       13.986328   0.000000
   11       14.134267   0.000000
   12       16.984966   0.000000
   13       16.984966   0.000000
   14       17.393665   0.000000
   15       21.984814   0.000000
   16       26.304153   0.000000
 
  0.2500000E+00  0.1250000E+00  0.0000000E+00  0.5664062E-01
    1      -10.144636   1.000000
    2       -0.647235   1.000000
    3        1.643974   1.000000
    4        1.706505   1.000000
    5        6.716990   0.000000
    6        7.786225   0.000000
    7        9.499067   0.000000
    8        9.563042   0.000000
    9       11.961625   0.000000
   10       13.990562   0.000000
   11       15.190842   0.000000
   12       16.896535   0.000000
   13       18.687272   0.000000
   14       19.898972   0.000000
   15       23.274013   0.000000
   16       23.464871   0.000000
 
  0.3750000E+00  0.1250000E+00  0.0000000E+00  0.3515625E-01
    1       -9.378848   1.000000
    2       -2.751318   1.000000
    3        1.106267   1.000000
    4        1.339563   1.000000
    5        6.485934   0.000000
    6        8.272532   0.000000
    7        9.577613   0.000000
    8       10.284144   0.000000
    9       13.704719   0.000000
   10       14.875874   0.000000
   11       14.954594   0.000000
   12       18.833356   0.000000
   13       19.618443   0.000000
   14       20.951631   0.000000
   15       21.823652   0.000000
   16       23.235066   0.000000
 
  0.5000000E+00  0.1250000E+00  0.0000000E+00  0.4101562E-01
    1       -8.686541   1.000000
    2       -4.105723   1.000000
    3        0.640509   1.000000
    4        1.338736   1.000000
    5        6.335639   0.000000
    6        8.265885   0.000000
    7        9.252213   0.000000
    8       12.017254   0.000000
    9       14.105977   0.000000
   10       15.873365   0.000000
   11       16.117057   0.000000
   12       17.418353   0.000000
   13       17.908519   0.000000
   14       20.773756   0.000000
   15       23.756758   0.000000
   16       24.952624   0.000000
 
 -0.3750000E+00  0.1250000E+00  0.0000000E+00  0.4101562E-01
    1       -8.865004   1.000000
    2       -3.786919   1.000000
    3        0.467945   1.000000
    4        1.627742   1.000000
    5        6.430943   0.000000
    6        8.451386   0.000000
    7        9.024743   0.000000
    8       12.064059   0.000000
    9       13.713900   0.000000
   10       14.476905   0.000000
   11       16.389192   0.000000
   12       17.287773   0.000000
   13       20.321069   0.000000
   14       20.344860   0.000000
   15       22.171020   0.000000
   16       24.180729   0.000000
 
 -0.2500000E+00  0.1250000E+00  0.0000000E+00  0.3906250E-01
    1       -9.659446   1.000000
    2       -2.089384   1.000000
    3        0.675310   1.000000
    4        2.112573   1.000000
    5        6.744979   0.000000
    6        8.732040   0.000000
    7        8.807998   0.000000
    8       10.360320   0.000000
    9       12.118811   0.000000
   10       14.596741   0.000000
   11       15.352623   0.000000
   12       17.827883   0.000000
   13       20.033272   0.000000
   14       20.572320   0.000000
   15       22.569539   0.000000
   16       23.407110   0.000000
 
  0.2500000E+00  0.2500000E+00  0.0000000E+00  0.3906250E-02
    1       -9.811723   1.000000
    2       -1.073886   1.000000
    3        1.053457   1.000000
    4        1.053457   1.000000
    5        5.861472   0.000000
    6        7.510335   0.000000
    7       10.782249   0.000000
    8       10.782249   0.000000
    9       11.760283   0.000000
   10       14.754053   0.000000
   11       16.895959   0.000000
   12       18.629432   0.000000
   13       18.629432   0.000000
   14       18.871537   0.000000
   15       22.743083   0.000000
   16       22.743083   0.000000
 
  0.3750000E+00  0.2500000E+00  0.0000000E+00  0.7226562E-01
    1       -9.152793   1.000000
    2       -2.494187   1.000000
    3        0.295892   1.000000
    4        0.698681   1.000000
    5        5.977463   0.000000
    6        7.414247   0.000000
    7       10.683969   0.000000
    8       11.374344   0.000000
    9       13.965681   0.000000
   10       15.577037   0.000000
   11       17.244375   0.000000
   12       19.132144   0.000000
   13       19.560465   0.000000
   14       20.535937   0.000000
   15       20.958321   0.000000
   16       22.266199   0.000000
 
  0.5000000E+00  0.2500000E+00  0.0000000E+00  0.8398438E-01
    1       -8.418653   1.000000
    2       -3.758876   1.000000
    3       -0.600189   1.000000
    4        0.687736   1.000000
    5        6.122357   0.000000
    6        8.813742   0.000000
    7       10.509953   0.000000
    8       11.059665   0.000000
    9       14.996397   0.000000
   10       15.965352   0.000000
   11       17.545250   0.000000
   12       17.806060   0.000000
   13       18.413344   0.000000
   14       22.723176   0.000000
   15       23.239332   0.000000
   16       23.552122   0.000000
 
 -0.3750000E+00  0.2500000E+00  0.0000000E+00  0.8398438E-01
    1       -8.294553   1.000000
    2       -3.927954   1.000000
    3       -1.084005   1.000000
    4        1.016540   1.000000
    5        6.426772   0.000000
    6        9.610341   0.000000
    7       10.563566   0.000000
    8       11.514108   0.000000
    9       13.377579   0.000000
   10       13.674350   0.000000
   11       17.516115   0.000000
   12       19.490957   0.000000
   13       20.848567   0.000000
   14       21.281288   0.000000
   15       21.746976   0.000000
   16       24.434724   0.000000
 
 -0.2500000E+00  0.2500000E+00  0.0000000E+00  0.3515625E-01
    1       -8.946300   1.000000
    2       -2.978397   1.000000
    3       -0.782458   1.000000
    4        1.583126   1.000000
    5        6.954306   0.000000
    6        9.643493   0.000000
    7        9.821542   0.000000
    8       10.158086   0.000000
    9       12.167681   0.000000
   10       15.257532   0.000000
   11       17.572229   0.000000
   12       17.753262   0.000000
   13       18.898088   0.000000
   14       22.432105   0.000000
   15       23.050538   0.000000
   16       23.376605   0.000000
 
  0.3750000E+00  0.3750000E+00  0.0000000E+00  0.3906250E-02
    1       -8.634723   1.000000
    2       -3.263834   1.000000
    3        0.261115   1.000000
    4        0.261116   1.000000
    5        5.236697   0.000000
    6        6.169413   0.000000
    7       13.137466   0.000000
    8       13.137467   0.000000
    9       14.010169   0.000000
   10       15.890253   0.000000
   11       19.036772   0.000000
   12       19.036773   0.000000
   13       19.301515   0.000000
   14       21.221676   0.000000
   15       21.866139   0.000000
   16       21.866139   0.000000
 
  0.5000000E+00  0.3750000E+00  0.0000000E+00  0.7421875E-01
    1       -8.036233   1.000000
    2       -4.071596   1.000000
    3       -0.508282   1.000000
    4        0.171327   1.000000
    5        5.492328   0.000000
    6        6.537814   0.000000
    7       13.003019   0.000000
    8       13.359366   0.000000
    9       15.409365   0.000000
   10       16.221489   0.000000
   11       17.493562   0.000000
   12       18.200256   0.000000
   13       20.451403   0.000000
   14       21.330457   0.000000
   15       21.704945   0.000000
   16       23.645493   0.000000
 
 -0.3750000E+00  0.3750000E+00  0.0000000E+00  0.6640625E-01
    1       -7.866870   1.000000
    2       -4.181774   1.000000
    3       -1.378985   1.000000
    4        0.448790   1.000000
    5        5.813786   0.000000
    6        8.642901   0.000000
    7       12.339830   0.000000
    8       12.370466   0.000000
    9       13.413896   0.000000
   10       14.408656   0.000000
   11       19.093000   0.000000
   12       20.299574   0.000000
   13       20.669315   0.000000
   14       21.006095   0.000000
   15       22.281797   0.000000
   16       22.450929   0.000000
 
  0.3750000E+00  0.2500000E+00  0.1250000E+00  0.1171875E-01
    1       -9.580380   1.000000
    2       -1.824637   1.000000
    3        0.304294   1.000000
    4        1.513374   1.000000
    5        7.061231   0.000000
    6        7.969973   0.000000
    7        9.222196   0.000000
    8       10.525056   0.000000
    9       12.526739   0.000000
   10       15.222632   0.000000
   11       16.604388   0.000000
   12       17.342662   0.000000
   13       19.983909   0.000000
   14       20.130679   0.000000
   15       21.822509   0.000000
   16       23.220666   0.000000
 
  0.5000000E+00  0.2500000E+00  0.1250000E+00  0.4296875E-01
    1       -8.802655   1.000000
    2       -3.301668   1.000000
    3       -0.383621   1.000000
    4        1.031707   1.000000
    5        7.269695   0.000000
    6        8.243048   0.000000
    7        9.588018   0.000000
    8       11.083584   0.000000
    9       13.631501   0.000000
   10       15.679050   0.000000
   11       16.943994   0.000000
   12       17.679539   0.000000
   13       20.076236   0.000000
   14       20.585743   0.000000
   15       23.168776   0.000000
   16       23.557524   0.000000
 
 -0.3750000E+00  0.2500000E+00  0.1250000E+00  0.3515625E-01
    1       -8.343723   1.000000
    2       -4.064789   1.000000
    3       -0.550633   1.000000
    4        0.803854   1.000000
    5        7.261923   0.000000
    6        8.032511   0.000000
    7       10.479020   0.000000
    8       11.855226   0.000000
    9       12.989059   0.000000
   10       16.015127   0.000000
   11       16.743708   0.000000
   12       17.437999   0.000000
   13       20.401060   0.000000
   14       21.427444   0.000000
   15       23.263877   0.000000
   16       24.256855   0.000000
 
  0.5000000E+00  0.3750000E+00  0.1250000E+00  0.2929688E-01
    1       -8.488282   1.000000
    2       -3.432262   1.000000
    3       -0.418544   1.000000
    4        0.199954   1.000000
    5        6.497800   0.000000
    6        7.208868   0.000000
    7       10.518316   0.000000
    8       13.110929   0.000000
    9       14.155803   0.000000
   10       16.580304   0.000000
   11       17.407147   0.000000
   12       19.168520   0.000000
   13       19.233154   0.000000
   14       20.506935   0.000000
   15       22.251178   0.000000
   16       23.165298   0.000000
 
 -0.3750000E+00  0.3750000E+00  0.1250000E+00  0.1679688E+00
    1       -7.961277   1.000000
    2       -4.052448   1.000000
    3       -1.135517   1.000000
    4        0.007406   1.000000
    5        6.926251   0.000000
    6        8.740761   0.000000
    7       10.125204   0.000000
    8       12.217723   0.000000
    9       13.790009   0.000000
   10       16.522571   0.000000
   11       17.357491   0.000000
   12       19.203142   0.000000
   13       20.267408   0.000000
   14       21.992682   0.000000
   15       22.693003   0.000000
   16       23.830296   0.000000
 
  0.0000000E+00  0.0000000E+00  0.0000000E+00  0.0000000E+00
    1      -10.884164   1.000000
    2        2.836371   1.000000
    3        2.836371   1.000000
    4        2.836373   1.000000
    5        5.730615   0.000000
    6        7.725309   0.000000
    7        7.725309   0.000000
    8        7.725309   0.000000
    9       12.793136   0.000000
   10       13.722595   0.000000
   11       13.722595   0.000000
   12       16.419886   0.000000
   13       16.419886   0.000000
   14       16.419886   0.000000
   15       19.708586   0.000000
   16       29.167150   0.000000
 
  0.5555556E-01  0.0000000E+00  0.5555556E-01  0.0000000E+00
    1      -10.829505   1.000000
    2        2.411877   1.000000
    3        2.677440   1.000000
    4        2.677441   1.000000
    5        6.130255   0.000000
    6        7.558183   0.000000
    7        7.948234   0.000000
    8        7.948234   0.000000
    9       13.067953   0.000000
   10       13.199107   0.000000
   11       13.774946   0.000000
   12       16.531675   0.000000
   13       16.531675   0.000000
   14       16.740240   0.000000
   15       20.211555   0.000000
   16       28.273411   0.000000
 
  0.1111111E+00  0.0000000E+00  0.1111111E+00  0.0000000E+00
    1      -10.666441   1.000000
    2        1.520192   1.000000
    3        2.280312   1.000000
    4        2.280313   1.000000
    5        6.802662   0.000000
    6        7.259521   0.000000
    7        8.536399   0.000000
    8        8.536399   0.000000
    9       12.175247   0.000000
   10       13.883347   0.000000
   11       13.931213   0.000000
   12       16.866580   0.000000
   13       16.866580   0.000000
   14       17.261547   0.000000
   15       21.558088   0.000000
   16       26.712519   0.000000
 
  0.1666667E+00  0.0000000E+00  0.1666667E+00  0.0000000E+00
    1      -10.397957   1.000000
    2        0.498535   1.000000
    3        1.783882   1.000000
    4        1.783883   1.000000
    5        6.541470   0.000000
    6        7.674235   0.000000
    7        9.348617   0.000000
    8        9.348617   0.000000
    9       11.429774   0.000000
   10       14.189121   0.000000
   11       14.978104   0.000000
   12       17.421595   0.000000
   13       17.421595   0.000000
   14       17.812388   0.000000
   15       23.399318   0.000000
   16       25.078746   0.000000
 
  0.2222222E+00  0.0000000E+00  0.2222222E+00  0.0000000E+00
    1      -10.029948   1.000000
    2       -0.551433   1.000000
    3        1.285468   1.000000
    4        1.285469   1.000000
    5        6.073604   0.000000
    6        7.719909   0.000000
    7       10.285391   0.000000
    8       10.285391   0.000000
    9       11.447971   0.000000
   10       14.543518   0.000000
   11       16.241019   0.000000
   12       18.183792   0.000000
   13       18.183792   0.000000
   14       18.474896   0.000000
   15       23.494005   0.000000
   16       23.494006   0.000000
 
  0.2777778E+00  0.0000000E+00  0.2777778E+00  0.0000000E+00
    1       -9.573269   1.000000
    2       -1.589391   1.000000
    3        0.838814   1.000000
    4        0.838815   1.000000
    5        5.672519   0.000000
    6        7.222681   0.000000
    7       11.292198   0.000000
    8       11.292198   0.000000
    9       12.193282   0.000000
   10       14.984364   0.000000
   11       17.540817   0.000000
   12       19.094327   0.000000
   13       19.094328   0.000000
   14       19.322142   0.000000
   15       22.045459   0.000000
   16       22.045460   0.000000
 
  0.3333333E+00  0.0000000E+00  0.3333333E+00  0.0000000E+00
    1       -9.048537   1.000000
    2       -2.581013   1.000000
    3        0.472843   1.000000
    4        0.472844   1.000000
    5        5.377406   0.000000
    6        6.595875   0.000000
    7       12.339587   0.000000
    8       12.339587   0.000000
    9       13.219771   0.000000
   10       15.491517   0.000000
   11       18.694828   0.000000
   12       19.638771   0.000000
   13       19.638772   0.000000
   14       20.383894   0.000000
   15       21.254883   0.000000
   16       21.254883   0.000000
 
  0.3888889E+00  0.0000000E+00  0.3888889E+00  0.0000000E+00
    1       -8.498940   1.000000
    2       -3.473078   1.000000
    3        0.203342   1.000000
    4        0.203343   1.000000
    5        5.205981   0.000000
    6        6.042889   0.000000
    7       13.402645   0.000000
    8       13.402645   0.000000
    9       14.261886   0.000000
   10       16.020549   0.000000
   11       18.754064   0.000000
   12       18.754064   0.000000
   13       19.422786   0.000000
   14       21.477210   0.000000
   15       21.820075   0.000000
   16       22.190502   0.000000
 
  0.4444444E+00  0.0000000E+00  0.4444444E+00  0.0000000E+00
    1       -8.022940   1.000000
    2       -4.158535   1.000000
    3        0.038868   1.000000
    4        0.038869   1.000000
    5        5.163033   0.000000
    6        5.634338   0.000000
    7       14.413185   0.000000
    8       14.413185   0.000000
    9       15.115629   0.000000
   10       16.472616   0.000000
   11       17.637032   0.000000
   12       17.637033   0.000000
   13       19.476211   0.000000
   14       21.033679   0.000000
   15       22.377299   0.000000
   16       23.702890   0.000000
 
  0.5000000E+00  0.0000000E+00  0.5000000E+00  0.0000000E+00
    1       -7.816129   1.000000
    2       -4.435878   1.000000
    3       -0.016378   1.000000
    4       -0.016377   1.000000
    5        5.195562   0.000000
    6        5.449140   0.000000
    7       14.980034   0.000000
    8       14.980034   0.000000
    9       15.475391   0.000000
   10       16.665064   0.000000
   11       17.024076   0.000000
   12       17.024077   0.000000
   13       19.339944   0.000000
   14       20.729645   0.000000
   15       22.892344   0.000000
   16       25.205771   0.000000
 
  0.5000000E+00  0.0000000E+00  0.5000000E+00  0.0000000E+00
    1       -7.816129   1.000000
    2       -4.435878   1.000000
    3       -0.016378   1.000000
    4       -0.016377   1.000000
    5        5.195562   0.000000
    6        5.449140   0.000000
    7       14.980034   0.000000
    8       14.980034   0.000000
    9       15.475391   0.000000
   10       16.665064   0.000000
   11       17.024076   0.000000
   12       17.024077   0.000000
   13       19.339944   0.000000
   14       20.729645   0.000000
   15       22.892344   0.000000
   16       25.205750   0.000000
 
  0.5138889E+00  0.2777778E-01  0.5138889E+00  0.0000000E+00
    1       -7.815024   1.000000
    2       -4.432357   1.000000
    3       -0.053591   1.000000
    4       -0.010407   1.000000
    5        5.225639   0.000000
    6        5.486104   0.000000
    7       14.855431   0.000000
    8       14.904605   0.000000
    9       15.509734   0.000000
   10       16.553436   0.000000
   11       17.042728   0.000000
   12       17.178335   0.000000
   13       19.417812   0.000000
   14       20.762024   0.000000
   15       22.843200   0.000000
   16       24.986105   0.000000
 
  0.5277778E+00  0.5555556E-01  0.5277778E+00  0.0000000E+00
    1       -7.811962   1.000000
    2       -4.421891   1.000000
    3       -0.159106   1.000000
    4        0.007474   1.000000
    5        5.286699   0.000000
    6        5.620239   0.000000
    7       14.590378   0.000000
    8       14.702785   0.000000
    9       15.494074   0.000000
   10       16.360371   0.000000
   11       17.128471   0.000000
   12       17.478924   0.000000
   13       19.630700   0.000000
   14       20.854929   0.000000
   15       22.702802   0.000000
   16       24.541165   0.000000
 
  0.5416667E+00  0.8333333E-01  0.5416667E+00  0.0000000E+00
    1       -7.807733   1.000000
    2       -4.404765   1.000000
    3       -0.317209   1.000000
    4        0.037167   1.000000
    5        5.344323   0.000000
    6        5.870745   0.000000
    7       14.277433   0.000000
    8       14.421630   0.000000
    9       15.347368   0.000000
   10       16.138521   0.000000
   11       17.310217   0.000000
   12       17.836532   0.000000
   13       19.934936   0.000000
   14       20.997504   0.000000
   15       22.488750   0.000000
   16       24.079904   0.000000
 
  0.5555556E+00  0.1111111E+00  0.5555556E+00  0.0000000E+00
    1       -7.803642   1.000000
    2       -4.381406   1.000000
    3       -0.508149   1.000000
    4        0.078507   1.000000
    5        5.400914   0.000000
    6        6.216239   0.000000
    7       13.947063   0.000000
    8       14.098446   0.000000
    9       15.095595   0.000000
   10       15.889006   0.000000
   11       17.567235   0.000000
   12       18.225906   0.000000
   13       20.288437   0.000000
   14       21.176446   0.000000
   15       22.222224   0.000000
   16       23.630895   0.000000
 
  0.5694444E+00  0.1388889E+00  0.5694444E+00  0.0000000E+00
    1       -7.801552   1.000000
    2       -4.352315   1.000000
    3       -0.712675   1.000000
    4        0.131256   1.000000
    5        5.463747   0.000000
    6        6.631034   0.000000
    7       13.611844   0.000000
    8       13.755518   0.000000
    9       14.783752   0.000000
   10       15.615582   0.000000
   11       17.865375   0.000000
   12       18.633070   0.000000
   13       20.653793   0.000000
   14       21.379123   0.000000
   15       21.922546   0.000000
   16       23.207097   0.000000
 
  0.5833333E+00  0.1666667E+00  0.5833333E+00  0.0000000E+00
    1       -7.803840   1.000000
    2       -4.317928   1.000000
    3       -0.914128   1.000000
    4        0.195100   1.000000
    5        5.535870   0.000000
    6        7.095876   0.000000
    7       13.278886   0.000000
    8       13.405375   0.000000
    9       14.442915   0.000000
   10       15.324639   0.000000
   11       18.181539   0.000000
   12       19.049529   0.000000
   13       20.986319   0.000000
   14       21.596137   0.000000
   15       21.605786   0.000000
   16       22.830093   0.000000
 
  0.5972222E+00  0.1944444E+00  0.5972222E+00  0.0000000E+00
    1       -7.813363   1.000000
    2       -4.278419   1.000000
    3       -1.098929   1.000000
    4        0.269644   1.000000
    5        5.618246   0.000000
    6        7.595568   0.000000
    7       12.953060   0.000000
    8       13.055152   0.000000
    9       14.092191   0.000000
   10       15.022771   0.000000
   11       18.500747   0.000000
   12       19.468881   0.000000
   13       21.197351   0.000000
   14       21.296118   0.000000
   15       21.820835   0.000000
   16       22.550418   0.000000
 
  0.6111111E+00  0.2222222E+00  0.6111111E+00  0.0000000E+00
    1       -7.833292   1.000000
    2       -4.233426   1.000000
    3       -1.256466   1.000000
    4        0.354400   1.000000
    5        5.710993   0.000000
    6        8.116343   0.000000
    7       12.638600   0.000000
    8       12.709244   0.000000
    9       13.744989   0.000000
   10       14.715813   0.000000
   11       18.810498   0.000000
   12       19.886792   0.000000
   13       20.959595   0.000000
   14       21.221426   0.000000
   15       22.049822   0.000000
   16       22.442553   0.000000
 
  0.6250000E+00  0.2500000E+00  0.6250000E+00  0.0000000E+00
    1       -7.866870   1.000000
    2       -4.181774   1.000000
    3       -1.378985   1.000000
    4        0.448790   1.000000
    5        5.813789   0.000000
    6        8.642899   0.000000
    7       12.339830   0.000000
    8       12.370466   0.000000
    9       13.413897   0.000000
   10       14.408656   0.000000
   11       19.093000   0.000000
   12       20.299574   0.000000
   13       20.669320   0.000000
   14       21.006094   0.000000
   15       22.281796   0.000000
   16       22.450925   0.000000
 
  0.3750000E+00  0.3750000E+00  0.7500000E+00  0.0000000E+00
    1       -7.866870   1.000000
    2       -4.181774   1.000000
    3       -1.378985   1.000000
    4        0.448790   1.000000
    5        5.813789   0.000000
    6        8.642899   0.000000
    7       12.339830   0.000000
    8       12.370466   0.000000
    9       13.413896   0.000000
   10       14.408656   0.000000
   11       19.093000   0.000000
   12       20.299574   0.000000
   13       20.669320   0.000000
   14       21.006094   0.000000
   15       22.281796   0.000000
   16       22.450925   0.000000
 
  0.3333333E+00  0.3333333E+00  0.6666667E+00  0.0000000E+00
    1       -8.075215   1.000000
    2       -3.961543   1.000000
    3       -1.500614   1.000000
    4        0.782393   1.000000
    5        6.174327   0.000000
    6        9.969995   0.000000
    7       11.412650   0.000000
    8       11.576725   0.000000
    9       12.769572   0.000000
   10       13.523641   0.000000
   11       19.248094   0.000000
   12       19.984073   0.000000
   13       20.418831   0.000000
   14       21.478974   0.000000
   15       21.939063   0.000000
   16       23.000277   0.000000
 
  0.2916667E+00  0.2916667E+00  0.5833333E+00  0.0000000E+00
    1       -8.454452   1.000000
    2       -3.576380   1.000000
    3       -1.271808   1.000000
    4        1.171597   1.000000
    5        6.581254   0.000000
    6       10.097758   0.000000
    7       10.560225   0.000000
    8       10.866614   0.000000
    9       12.754644   0.000000
   10       13.610029   0.000000
   11       18.489517   0.000000
   12       18.893816   0.000000
   13       20.004955   0.000000
   14       21.715809   0.000000
   15       22.530575   0.000000
   16       23.781835   0.000000
 
  0.2500000E+00  0.2500000E+00  0.5000000E+00  0.0000000E+00
    1       -8.946300   1.000000
    2       -2.978396   1.000000
    3       -0.782458   1.000000
    4        1.583125   1.000000
    5        6.954308   0.000000
    6        9.643495   0.000000
    7        9.821542   0.000000
    8       10.158085   0.000000
    9       12.167680   0.000000
   10       15.257530   0.000000
   11       17.572224   0.000000
   12       17.753259   0.000000
   13       18.898088   0.000000
   14       22.432107   0.000000
   15       23.050539   0.000000
   16       23.376604   0.000000
 
  0.2083333E+00  0.2083333E+00  0.4166667E+00  0.0000000E+00
    1       -9.464641   1.000000
    2       -2.176448   1.000000
    3       -0.120235   1.000000
    4        1.976837   1.000000
    5        7.159091   0.000000
    6        9.091325   0.000000
    7        9.195646   0.000000
    8        9.794786   0.000000
    9       11.823709   0.000000
   10       15.691566   0.000000
   11       16.386478   0.000000
   12       17.186335   0.000000
   13       19.107782   0.000000
   14       20.880195   0.000000
   15       23.377353   0.000000
   16       23.582496   0.000000
 
  0.1666667E+00  0.1666667E+00  0.3333333E+00  0.0000000E+00
    1       -9.943658   1.000000
    2       -1.200728   1.000000
    3        0.643323   1.000000
    4        2.312860   1.000000
    5        7.119164   0.000000
    6        8.530573   0.000000
    7        8.678320   0.000000
    8        9.762401   0.000000
    9       11.772896   0.000000
   10       14.302683   0.000000
   11       15.798976   0.000000
   12       16.730051   0.000000
   13       19.126903   0.000000
   14       20.990762   0.000000
   15       21.854894   0.000000
   16       24.221588   0.000000
 
  0.1250000E+00  0.1250000E+00  0.2500000E+00  0.0000000E+00
    1      -10.343149   1.000000
    2       -0.087621   1.000000
    3        1.432111   1.000000
    4        2.564051   1.000000
    5        6.917733   0.000000