       N       E                     dE             d eps       ncg     rms          ort
SDA:   1    -0.121497201145E+02   -0.12150E+02    0.00000E+00  1344   0.715E-01 0.000E+00
CGA:   2    -0.121820690564E+02   -0.32349E-01   -0.32095E-01  1344   0.987E-02 0.111E-02
CGA:   3    -0.121897633870E+02   -0.76943E-02   -0.73299E-02  1344   0.167E-02 0.826E-03
CGA:   4    -0.121908166256E+02   -0.10532E-02   -0.10407E-02  1344   0.310E-03 0.378E-04
CGA:   5    -0.121909836807E+02   -0.16706E-03   -0.16644E-03  1344   0.389E-04 0.235E-05
CGA:   6    -0.121910028738E+02   -0.19193E-04   -0.18978E-04  1344   0.505E-05 0.109E-05
CGA:   7    -0.121910050829E+02   -0.22091E-05   -0.21381E-05  1344   0.616E-06 0.517E-06
CGA:   8    -0.121910054286E+02   -0.34566E-06   -0.33348E-06  1344   0.970E-07 0.582E-07
CGA:   9    -0.121910054810E+02   -0.52374E-07   -0.49173E-07  1344   0.225E-07 0.198E-07
CGA:  10    -0.121910054905E+02   -0.94960E-08   -0.91202E-08  1344   0.637E-08 0.115E-07
   1 F= -.12191005E+02 E0= -.12191005E+02  d E =-.655849E-10
