   5   5   1   0
  0.2199349E+02  0.2496087E-09  0.2496087E-09  0.1765000E-08  0.5000000E-15
  1.000000000000000E-004
  CAR 
 clean (100) Ni surface                  
     23.32447896    -10.54192236  301     -0.00112985      1.00000000
    -10.542  0.0000E+00  0.0000E+00  0.0000E+00  0.0000E+00
    -10.429  0.0000E+00  0.0000E+00  0.0000E+00  0.0000E+00
    -10.316  0.0000E+00  0.0000E+00  0.0000E+00  0.0000E+00
    -10.203  0.0000E+00  0.0000E+00  0.0000E+00  0.0000E+00
    -10.090  0.0000E+00  0.0000E+00  0.0000E+00  0.0000E+00
     -9.977  0.0000E+00  0.0000E+00  0.0000E+00  0.0000E+00
     -9.865  0.0000E+00  0.0000E+00  0.0000E+00  0.0000E+00
     -9.752  0.0000E+00  0.0000E+00  0.0000E+00  0.0000E+00
     -9.639  0.0000E+00  0.0000E+00  0.0000E+00  0.0000E+00
     -9.526  0.0000E+00  0.0000E+00  0.0000E+00  0.0000E+00
     -9.413  0.0000E+00  0.0000E+00  0.0000E+00  0.0000E+00
     -9.300  0.0000E+00  0.0000E+00  0.0000E+00  0.0000E+00
     -9.187  0.0000E+00  0.0000E+00  0.0000E+00  0.0000E+00
     -9.074  0.0000E+00  0.0000E+00  0.0000E+00  0.0000E+00
     -8.961  0.0000E+00  0.0000E+00  0.0000E+00  0.0000E+00
     -8.849  0.0000E+00  0.0000E+00  0.0000E+00  0.0000E+00
     -8.736  0.0000E+00  0.0000E+00  0.0000E+00  0.0000E+00
     -8.623  0.0000E+00  0.0000E+00  0.0000E+00  0.0000E+00
     -8.510  0.0000E+00  0.1620E-01  0.0000E+00  0.2590E-03
     -8.397  0.5155E-01  0.7337E-01  0.2605E-02  0.5314E-02
     -8.284  0.1091E+00  0.1305E+00  0.1167E-01  0.1682E-01
     -8.171  0.1578E+00  0.1504E+00  0.2719E-01  0.3374E-01
     -8.058  0.1400E+00  0.1325E+00  0.4399E-01  0.4971E-01
     -7.945  0.1221E+00  0.1145E+00  0.5879E-01  0.6365E-01
     -7.833  0.1148E+00  0.1164E+00  0.7182E-01  0.7644E-01
     -7.720  0.1224E+00  0.1238E+00  0.8520E-01  0.9000E-01
     -7.607  0.1300E+00  0.1312E+00  0.9945E-01  0.1044E+00
     -7.494  0.1376E+00  0.1386E+00  0.1145E+00  0.1196E+00
     -7.381  0.1451E+00  0.1460E+00  0.1305E+00  0.1357E+00
     -7.268  0.1789E+00  0.1946E+00  0.1480E+00  0.1545E+00
     -7.155  0.2383E+00  0.2518E+00  0.1716E+00  0.1796E+00
     -7.042  0.2977E+00  0.2979E+00  0.2018E+00  0.2112E+00
     -6.930  0.2949E+00  0.2842E+00  0.2358E+00  0.2442E+00
     -6.817  0.2801E+00  0.2685E+00  0.2683E+00  0.2754E+00
     -6.704  0.2738E+00  0.2681E+00  0.2992E+00  0.3053E+00
     -6.591  0.2864E+00  0.2797E+00  0.3308E+00  0.3362E+00
     -6.478  0.2990E+00  0.2913E+00  0.3638E+00  0.3684E+00
     -6.365  0.3116E+00  0.3029E+00  0.3983E+00  0.4020E+00
     -6.252  0.3243E+00  0.3145E+00  0.4342E+00  0.4368E+00
     -6.139  0.3316E+00  0.3179E+00  0.4713E+00  0.4726E+00
     -6.026  0.3386E+00  0.3205E+00  0.5091E+00  0.5086E+00
     -5.914  0.3531E+00  0.3280E+00  0.5480E+00  0.5451E+00
     -5.801  0.3700E+00  0.3377E+00  0.5888E+00  0.5827E+00
     -5.688  0.3852E+00  0.3473E+00  0.6315E+00  0.6213E+00
     -5.575  0.4529E+00  0.4051E+00  0.6776E+00  0.6627E+00
     -5.462  0.5552E+00  0.4956E+00  0.7345E+00  0.7135E+00
     -5.349  0.6200E+00  0.5608E+00  0.8021E+00  0.7742E+00
     -5.236  0.6284E+00  0.5538E+00  0.8723E+00  0.8371E+00
     -5.123  0.7010E+00  0.5539E+00  0.9463E+00  0.8995E+00
     -5.010  0.7857E+00  0.6158E+00  0.1030E+01  0.9657E+00
     -4.898  0.8486E+00  0.6661E+00  0.1123E+01  0.1038E+01
     -4.785  0.1187E+01  0.7050E+00  0.1226E+01  0.1115E+01
     -4.672  0.1483E+01  0.7490E+00  0.1368E+01  0.1197E+01
     -4.559  0.1359E+01  0.1040E+01  0.1527E+01  0.1296E+01
     -4.446  0.1522E+01  0.1049E+01  0.1684E+01  0.1414E+01
     -4.333  0.3045E+01  0.1185E+01  0.1963E+01  0.1533E+01
     -4.220  0.2086E+01  0.1328E+01  0.2308E+01  0.1675E+01
     -4.107  0.2047E+01  0.1531E+01  0.2532E+01  0.1830E+01
     -3.994  0.1815E+01  0.3898E+01  0.2810E+01  0.2106E+01
     -3.882  0.6338E+01  0.1901E+01  0.3217E+01  0.2364E+01
     -3.769  0.4474E+01  0.1777E+01  0.3843E+01  0.2567E+01
     -3.656  0.4190E+01  0.1071E+01  0.4279E+01  0.2847E+01
     -3.543  0.6044E+01  0.1253E+01  0.4901E+01  0.2976E+01
     -3.430  0.4047E+01  0.5782E+01  0.5538E+01  0.3341E+01
     -3.317  0.3905E+01  0.3556E+01  0.5972E+01  0.3773E+01
     -3.204  0.3011E+01  0.4011E+01  0.6406E+01  0.4249E+01
     -3.091  0.4288E+01  0.3212E+01  0.6797E+01  0.4886E+01
     -2.978  0.3818E+01  0.4898E+01  0.7290E+01  0.5309E+01
     -2.866  0.5654E+01  0.2564E+01  0.7812E+01  0.5739E+01
     -2.753  0.7219E+01  0.3884E+01  0.8497E+01  0.6154E+01
     -2.640  0.6434E+01  0.3198E+01  0.9129E+01  0.6569E+01
     -2.527  0.4544E+01  0.3234E+01  0.9658E+01  0.6961E+01
     -2.414  0.5277E+01  0.4285E+01  0.1026E+02  0.7375E+01
     -2.301  0.9525E+01  0.5808E+01  0.1103E+02  0.7875E+01
     -2.188  0.9319E+01  0.5289E+01  0.1218E+02  0.8511E+01
     -2.075  0.5592E+01  0.4812E+01  0.1298E+02  0.9057E+01
     -1.962  0.7095E+01  0.4667E+01  0.1357E+02  0.9718E+01
     -1.850  0.7030E+01  0.3810E+01  0.1449E+02  0.1021E+02
     -1.737  0.6922E+01  0.5230E+01  0.1536E+02  0.1075E+02
     -1.624  0.6824E+01  0.9409E+01  0.1610E+02  0.1164E+02
     -1.511  0.6247E+01  0.1015E+02  0.1680E+02  0.1256E+02
     -1.398  0.6097E+01  0.5216E+01  0.1760E+02  0.1325E+02
     -1.285  0.8758E+01  0.6530E+01  0.1840E+02  0.1376E+02
     -1.172  0.7699E+01  0.9271E+01  0.1929E+02  0.1466E+02
     -1.059  0.9458E+01  0.7046E+01  0.2037E+02  0.1551E+02
     -0.946  0.8396E+01  0.6952E+01  0.2137E+02  0.1629E+02
     -0.834  0.9415E+01  0.6847E+01  0.2240E+02  0.1719E+02
     -0.721  0.1275E+02  0.5940E+01  0.2348E+02  0.1791E+02
     -0.608  0.1001E+02  0.7341E+01  0.2473E+02  0.1864E+02
     -0.495  0.3898E+01  0.8702E+01  0.2575E+02  0.1945E+02
     -0.382  0.1922E+01  0.8149E+01  0.2608E+02  0.2043E+02
     -0.269  0.1121E+01  0.8674E+01  0.2627E+02  0.2130E+02
     -0.156  0.1063E+01  0.7341E+01  0.2640E+02  0.2237E+02
     -0.043  0.9935E+00  0.6128E+01  0.2651E+02  0.2317E+02
      0.070  0.1198E+01  0.1105E+02  0.2664E+02  0.2416E+02
      0.182  0.1089E+01  0.1429E+02  0.2677E+02  0.2513E+02
      0.295  0.1070E+01  0.3857E+01  0.2689E+02  0.2593E+02
      0.408  0.9295E+00  0.2439E+01  0.2701E+02  0.2625E+02
      0.521  0.8795E+00  0.1515E+01  0.2711E+02  0.2651E+02
      0.634  0.7625E+00  0.1363E+01  0.2720E+02  0.2667E+02
      0.747  0.7489E+00  0.1218E+01  0.2729E+02  0.2681E+02
      0.860  0.7330E+00  0.1311E+01  0.2737E+02  0.2695E+02
      0.973  0.7218E+00  0.1158E+01  0.2746E+02  0.2709E+02
      1.086  0.6671E+00  0.1075E+01  0.2754E+02  0.2722E+02
      1.198  0.6544E+00  0.9336E+00  0.2761E+02  0.2732E+02
      1.311  0.6195E+00  0.8835E+00  0.2768E+02  0.2743E+02
      1.424  0.6430E+00  0.8054E+00  0.2775E+02  0.2752E+02
      1.537  0.7350E+00  0.7596E+00  0.2783E+02  0.2761E+02
      1.650  0.8051E+00  0.7125E+00  0.2792E+02  0.2769E+02
      1.763  0.7705E+00  0.8921E+00  0.2801E+02  0.2777E+02
      1.876  0.7310E+00  0.8562E+00  0.2809E+02  0.2787E+02
      1.989  0.6899E+00  0.8288E+00  0.2817E+02  0.2797E+02
      2.102  0.8679E+00  0.8005E+00  0.2827E+02  0.2806E+02
      2.214  0.8650E+00  0.7533E+00  0.2837E+02  0.2815E+02
      2.327  0.7380E+00  0.7074E+00  0.2846E+02  0.2823E+02
      2.440  0.7057E+00  0.8888E+00  0.2855E+02  0.2832E+02
      2.553  0.7384E+00  0.8665E+00  0.2863E+02  0.2844E+02
      2.666  0.7552E+00  0.7396E+00  0.2872E+02  0.2853E+02
      2.779  0.7514E+00  0.7620E+00  0.2880E+02  0.2861E+02
      2.892  0.7459E+00  0.7880E+00  0.2889E+02  0.2870E+02
      3.005  0.6818E+00  0.7847E+00  0.2896E+02  0.2879E+02
      3.118  0.6784E+00  0.7793E+00  0.2904E+02  0.2888E+02
      3.230  0.6775E+00  0.7303E+00  0.2912E+02  0.2896E+02
      3.343  0.6808E+00  0.7284E+00  0.2919E+02  0.2905E+02
      3.456  0.6751E+00  0.7310E+00  0.2927E+02  0.2913E+02
      3.569  0.6656E+00  0.7336E+00  0.2935E+02  0.2921E+02
      3.682  0.7041E+00  0.7223E+00  0.2944E+02  0.2929E+02
      3.795  0.6466E+00  0.6319E+00  0.2951E+02  0.2938E+02
      3.908  0.5886E+00  0.7208E+00  0.2958E+02  0.2946E+02
      4.021  0.5497E+00  0.6528E+00  0.2965E+02  0.2954E+02
      4.134  0.4166E+00  0.5947E+00  0.2971E+02  0.2961E+02
      4.246  0.5252E+00  0.4313E+00  0.2976E+02  0.2968E+02
      4.359  0.4184E+00  0.4265E+00  0.2981E+02  0.2972E+02
      4.472  0.3998E+00  0.5299E+00  0.2986E+02  0.2978E+02
      4.585  0.6808E+00  0.4169E+00  0.2991E+02  0.2983E+02
      4.698  0.8019E+00  0.4530E+00  0.2999E+02  0.2988E+02
      4.811  0.9816E+00  0.7493E+00  0.3010E+02  0.2994E+02
      4.924  0.1090E+01  0.8642E+00  0.3022E+02  0.3003E+02
      5.037  0.1010E+01  0.9805E+00  0.3034E+02  0.3015E+02
      5.150  0.1018E+01  0.1099E+01  0.3045E+02  0.3027E+02
      5.262  0.1045E+01  0.1014E+01  0.3057E+02  0.3038E+02
      5.375  0.9943E+00  0.1040E+01  0.3070E+02  0.3050E+02
      5.488  0.9315E+00  0.1022E+01  0.3081E+02  0.3063E+02
      5.601  0.1020E+01  0.1018E+01  0.3092E+02  0.3075E+02
      5.714  0.1102E+01  0.1090E+01  0.3104E+02  0.3086E+02
      5.827  0.9818E+00  0.1142E+01  0.3116E+02  0.3099E+02
      5.940  0.8011E+00  0.1059E+01  0.3126E+02  0.3112E+02
      6.053  0.7084E+00  0.8749E+00  0.3134E+02  0.3123E+02
      6.166  0.6830E+00  0.7866E+00  0.3143E+02  0.3132E+02
      6.278  0.6896E+00  0.7086E+00  0.3151E+02  0.3142E+02
      6.391  0.6608E+00  0.7049E+00  0.3158E+02  0.3150E+02
      6.504  0.6745E+00  0.6791E+00  0.3166E+02  0.3157E+02
      6.617  0.4697E+00  0.8496E+00  0.3173E+02  0.3165E+02
      6.730  0.4619E+00  0.4796E+00  0.3178E+02  0.3172E+02
      6.843  0.1613E+01  0.4713E+00  0.3184E+02  0.3178E+02
      6.956  0.1465E+01  0.4631E+00  0.3199E+02  0.3183E+02
      7.069  0.1114E+01  0.9655E+00  0.3214E+02  0.3190E+02
      7.181  0.1453E+01  0.1642E+01  0.3226E+02  0.3206E+02
      7.294  0.1491E+01  0.1171E+01  0.3244E+02  0.3222E+02
      7.407  0.1108E+01  0.1606E+01  0.3259E+02  0.3236E+02
      7.520  0.9021E+00  0.1477E+01  0.3270E+02  0.3254E+02
      7.633  0.7779E+00  0.9304E+00  0.3279E+02  0.3267E+02
      7.746  0.7252E+00  0.8424E+00  0.3289E+02  0.3277E+02
      7.859  0.7975E+00  0.7568E+00  0.3297E+02  0.3287E+02
      7.972  0.8326E+00  0.8214E+00  0.3307E+02  0.3296E+02
      8.085  0.8212E+00  0.8907E+00  0.3316E+02  0.3306E+02
      8.197  0.7986E+00  0.8463E+00  0.3325E+02  0.3315E+02
      8.310  0.9328E+00  0.8140E+00  0.3336E+02  0.3325E+02
      8.423  0.1246E+01  0.7554E+00  0.3349E+02  0.3335E+02
      8.536  0.1397E+01  0.1180E+01  0.3364E+02  0.3346E+02
      8.649  0.1315E+01  0.1473E+01  0.3379E+02  0.3362E+02
      8.762  0.1009E+01  0.1338E+01  0.3392E+02  0.3378E+02
      8.875  0.1061E+01  0.1028E+01  0.3404E+02  0.3390E+02
      8.988  0.1135E+01  0.1135E+01  0.3416E+02  0.3403E+02
      9.101  0.1424E+01  0.1206E+01  0.3431E+02  0.3416E+02
      9.213  0.1340E+01  0.1296E+01  0.3447E+02  0.3431E+02
      9.326  0.1078E+01  0.1325E+01  0.3461E+02  0.3447E+02
      9.439  0.9203E+00  0.1129E+01  0.3473E+02  0.3460E+02
      9.552  0.1050E+01  0.9891E+00  0.3483E+02  0.3472E+02
      9.665  0.9952E+00  0.1063E+01  0.3495E+02  0.3484E+02
      9.778  0.8924E+00  0.1006E+01  0.3506E+02  0.3496E+02
      9.891  0.9170E+00  0.8979E+00  0.3516E+02  0.3507E+02
     10.004  0.8875E+00  0.9246E+00  0.3528E+02  0.3517E+02
     10.117  0.1226E+01  0.1333E+01  0.3544E+02  0.3528E+02
     10.229  0.1133E+01  0.1141E+01  0.3557E+02  0.3545E+02
     10.342  0.1144E+01  0.1058E+01  0.3573E+02  0.3557E+02
     10.455  0.1235E+01  0.1103E+01  0.3587E+02  0.3572E+02
     10.568  0.1392E+01  0.1243E+01  0.3603E+02  0.3587E+02
     10.681  0.1247E+01  0.1405E+01  0.3619E+02  0.3603E+02
     10.794  0.1310E+01  0.1234E+01  0.3634E+02  0.3618E+02
     10.907  0.1313E+01  0.1340E+01  0.3647E+02  0.3632E+02
     11.020  0.1352E+01  0.1405E+01  0.3663E+02  0.3648E+02
     11.133  0.1357E+01  0.1417E+01  0.3679E+02  0.3665E+02
     11.245  0.1245E+01  0.1242E+01  0.3695E+02  0.3682E+02
     11.358  0.1381E+01  0.1435E+01  0.3709E+02  0.3697E+02
     11.471  0.1266E+01  0.1218E+01  0.3724E+02  0.3712E+02
     11.584  0.1366E+01  0.1325E+01  0.3739E+02  0.3726E+02
     11.697  0.1635E+01  0.1366E+01  0.3756E+02  0.3741E+02
     11.810  0.1674E+01  0.1569E+01  0.3775E+02  0.3758E+02
     11.923  0.1608E+01  0.1903E+01  0.3794E+02  0.3779E+02
     12.036  0.1616E+01  0.1344E+01  0.3810E+02  0.3797E+02
     12.149  0.1719E+01  0.1657E+01  0.3830E+02  0.3814E+02
     12.261  0.1764E+01  0.1795E+01  0.3850E+02  0.3833E+02
     12.374  0.1711E+01  0.1597E+01  0.3869E+02  0.3854E+02
     12.487  0.1686E+01  0.1587E+01  0.3887E+02  0.3872E+02
     12.600  0.1495E+01  0.1729E+01  0.3906E+02  0.3890E+02
     12.713  0.1298E+01  0.1424E+01  0.3921E+02  0.3909E+02
     12.826  0.1403E+01  0.1535E+01  0.3941E+02  0.3925E+02
     12.939  0.1321E+01  0.1381E+01  0.3958E+02  0.3946E+02
     13.052  0.2315E+01  0.1356E+01  0.3974E+02  0.3963E+02
     13.165  0.1306E+01  0.2114E+01  0.3994E+02  0.3980E+02
     13.277  0.1508E+01  0.1121E+01  0.4008E+02  0.4000E+02
     13.390  0.9764E+00  0.1091E+01  0.4019E+02  0.4014E+02
     13.503  0.1126E+01  0.1094E+01  0.4033E+02  0.4026E+02
     13.616  0.1160E+01  0.1148E+01  0.4046E+02  0.4039E+02
     13.729  0.1210E+01  0.1168E+01  0.4059E+02  0.4052E+02
     13.842  0.1486E+01  0.1336E+01  0.4078E+02  0.4067E+02
     13.955  0.1680E+01  0.1456E+01  0.4095E+02  0.4084E+02
     14.068  0.1956E+01  0.1639E+01  0.4114E+02  0.4102E+02
     14.181  0.2102E+01  0.2055E+01  0.4136E+02  0.4122E+02
     14.293  0.1681E+01  0.1734E+01  0.4157E+02  0.4145E+02
     14.406  0.1597E+01  0.1639E+01  0.4176E+02  0.4164E+02
     14.519  0.2250E+01  0.1846E+01  0.4198E+02  0.4186E+02
     14.632  0.1683E+01  0.1820E+01  0.4220E+02  0.4208E+02
     14.745  0.1841E+01  0.1748E+01  0.4241E+02  0.4228E+02
     14.858  0.1335E+01  0.1759E+01  0.4260E+02  0.4248E+02
     14.971  0.1268E+01  0.1305E+01  0.4274E+02  0.4266E+02
     15.084  0.1452E+01  0.1241E+01  0.4290E+02  0.4280E+02
     15.197  0.1476E+01  0.1419E+01  0.4306E+02  0.4297E+02
     15.309  0.1513E+01  0.1550E+01  0.4325E+02  0.4313E+02
     15.422  0.1434E+01  0.1491E+01  0.4341E+02  0.4332E+02
     15.535  0.1620E+01  0.1628E+01  0.4359E+02  0.4349E+02
     15.648  0.1906E+01  0.1889E+01  0.4380E+02  0.4368E+02
     15.761  0.1582E+01  0.2127E+01  0.4401E+02  0.4390E+02
     15.874  0.1239E+01  0.1216E+01  0.4415E+02  0.4407E+02
     15.987  0.1257E+01  0.1278E+01  0.4429E+02  0.4421E+02
     16.100  0.1252E+01  0.1263E+01  0.4443E+02  0.4435E+02
     16.213  0.1319E+01  0.1240E+01  0.4457E+02  0.4450E+02
     16.325  0.1168E+01  0.1294E+01  0.4472E+02  0.4464E+02
     16.438  0.1150E+01  0.1167E+01  0.4485E+02  0.4478E+02
     16.551  0.1143E+01  0.1147E+01  0.4498E+02  0.4491E+02
     16.664  0.1119E+01  0.1149E+01  0.4511E+02  0.4504E+02
     16.777  0.1017E+01  0.1076E+01  0.4523E+02  0.4517E+02
     16.890  0.9968E+00  0.9908E+00  0.4534E+02  0.4528E+02
     17.003  0.1150E+01  0.1194E+01  0.4547E+02  0.4540E+02
     17.116  0.1197E+01  0.1180E+01  0.4560E+02  0.4554E+02
     17.229  0.1129E+01  0.1192E+01  0.4574E+02  0.4567E+02
     17.341  0.1005E+01  0.1061E+01  0.4586E+02  0.4580E+02
     17.454  0.1003E+01  0.9867E+00  0.4597E+02  0.4591E+02
     17.567  0.1008E+01  0.1038E+01  0.4608E+02  0.4603E+02
     17.680  0.9753E+00  0.1003E+01  0.4620E+02  0.4614E+02
     17.793  0.9802E+00  0.9492E+00  0.4630E+02  0.4625E+02
     17.906  0.1070E+01  0.1035E+01  0.4642E+02  0.4636E+02
     18.019  0.2170E+01  0.1164E+01  0.4657E+02  0.4649E+02
     18.132  0.1425E+01  0.2335E+01  0.4677E+02  0.4669E+02
     18.245  0.1354E+01  0.1412E+01  0.4692E+02  0.4686E+02
     18.357  0.8467E+00  0.9107E+00  0.4703E+02  0.4699E+02
     18.470  0.7199E+00  0.7733E+00  0.4712E+02  0.4709E+02
     18.583  0.5852E+00  0.6553E+00  0.4720E+02  0.4717E+02
     18.696  0.5455E+00  0.5618E+00  0.4726E+02  0.4723E+02
     18.809  0.5085E+00  0.5269E+00  0.4732E+02  0.4729E+02
     18.922  0.4715E+00  0.4920E+00  0.4737E+02  0.4735E+02
     19.035  0.4424E+00  0.4572E+00  0.4743E+02  0.4741E+02
     19.148  0.3981E+00  0.4148E+00  0.4747E+02  0.4746E+02
     19.261  0.3675E+00  0.3799E+00  0.4752E+02  0.4750E+02
     19.373  0.3510E+00  0.3595E+00  0.4756E+02  0.4754E+02
     19.486  0.3351E+00  0.3428E+00  0.4760E+02  0.4758E+02
     19.599  0.3192E+00  0.3261E+00  0.4763E+02  0.4762E+02
     19.712  0.3841E+00  0.3095E+00  0.4767E+02  0.4766E+02
     19.825  0.2501E+00  0.3326E+00  0.4771E+02  0.4770E+02
     19.938  0.2362E+00  0.2401E+00  0.4774E+02  0.4773E+02
     20.051  0.2222E+00  0.2253E+00  0.4776E+02  0.4776E+02
     20.164  0.2391E+00  0.2366E+00  0.4779E+02  0.4778E+02
     20.277  0.1743E+00  0.1822E+00  0.4781E+02  0.4781E+02
     20.389  0.1416E+00  0.1577E+00  0.4783E+02  0.4783E+02
     20.502  0.1421E+00  0.1420E+00  0.4785E+02  0.4784E+02
     20.615  0.1435E+00  0.1455E+00  0.4786E+02  0.4786E+02
     20.728  0.1915E+00  0.1782E+00  0.4788E+02  0.4788E+02
     20.841  0.2060E+00  0.2109E+00  0.4791E+02  0.4790E+02
     20.954  0.2018E+00  0.2050E+00  0.4793E+02  0.4792E+02
     21.067  0.2128E+00  0.2809E+00  0.4796E+02  0.4795E+02
     21.180  0.1539E+00  0.1781E+00  0.4798E+02  0.4797E+02
     21.292  0.0000E+00  0.5580E+00  0.4800E+02  0.4799E+02
     21.405  0.0000E+00  0.0000E+00  0.4800E+02  0.4800E+02
     21.518  0.0000E+00  0.0000E+00  0.4800E+02  0.4800E+02
     21.631  0.0000E+00  0.0000E+00  0.4800E+02  0.4800E+02
     21.744  0.0000E+00  0.0000E+00  0.4800E+02  0.4800E+02
     21.857  0.0000E+00  0.0000E+00  0.4800E+02  0.4800E+02
     21.970  0.0000E+00  0.0000E+00  0.4800E+02  0.4800E+02
     22.083  0.0000E+00  0.0000E+00  0.4800E+02  0.4800E+02
     22.196  0.0000E+00  0.0000E+00  0.4800E+02  0.4800E+02
     22.308  0.0000E+00  0.0000E+00  0.4800E+02  0.4800E+02
     22.421  0.0000E+00  0.0000E+00  0.4800E+02  0.4800E+02
     22.534  0.0000E+00  0.0000E+00  0.4800E+02  0.4800E+02
     22.647  0.0000E+00  0.0000E+00  0.4800E+02  0.4800E+02
     22.760  0.0000E+00  0.0000E+00  0.4800E+02  0.4800E+02
     22.873  0.0000E+00  0.0000E+00  0.4800E+02  0.4800E+02
     22.986  0.0000E+00  0.0000E+00  0.4800E+02  0.4800E+02
     23.099  0.0000E+00  0.0000E+00  0.4800E+02  0.4800E+02
     23.212  0.0000E+00  0.0000E+00  0.4800E+02  0.4800E+02
     23.324  0.0000E+00  0.0000E+00  0.4800E+02  0.4800E+02
     23.32447896    -10.54192236  301     -0.00112985      1.00000000
    -10.542  0.0000E+00  0.0000E+00  0.0000E+00  0.0000E+00  0.0000E+00  0.0000E+00
    -10.429  0.0000E+00  0.0000E+00  0.0000E+00  0.0000E+00  0.0000E+00  0.0000E+00
    -10.316  0.0000E+00  0.0000E+00  0.0000E+00  0.0000E+00  0.0000E+00  0.0000E+00
    -10.203  0.0000E+00  0.0000E+00  0.0000E+00  0.0000E+00  0.0000E+00  0.0000E+00
    -10.090  0.0000E+00  0.0000E+00  0.0000E+00  0.0000E+00  0.0000E+00  0.0000E+00
     -9.977  0.0000E+00  0.0000E+00  0.0000E+00  0.0000E+00  0.0000E+00  0.0000E+00
     -9.865  0.0000E+00  0.0000E+00  0.0000E+00  0.0000E+00  0.0000E+00  0.0000E+00
     -9.752  0.0000E+00  0.0000E+00  0.0000E+00  0.0000E+00  0.0000E+00  0.0000E+00
     -9.639  0.0000E+00  0.0000E+00  0.0000E+00  0.0000E+00  0.0000E+00  0.0000E+00
     -9.526  0.0000E+00  0.0000E+00  0.0000E+00  0.0000E+00  0.0000E+00  0.0000E+00
     -9.413  0.0000E+00  0.0000E+00  0.0000E+00  0.0000E+00  0.0000E+00  0.0000E+00
     -9.300  0.0000E+00  0.0000E+00  0.0000E+00  0.0000E+00  0.0000E+00  0.0000E+00
     -9.187  0.0000E+00  0.0000E+00  0.0000E+00  0.0000E+00  0.0000E+00  0.0000E+00
     -9.074  0.0000E+00  0.0000E+00  0.0000E+00  0.0000E+00  0.0000E+00  0.0000E+00
     -8.961  0.0000E+00  0.0000E+00  0.0000E+00  0.0000E+00  0.0000E+00  0.0000E+00
     -8.849  0.0000E+00  0.0000E+00  0.0000E+00  0.0000E+00  0.0000E+00  0.0000E+00
     -8.736  0.0000E+00  0.0000E+00  0.0000E+00  0.0000E+00  0.0000E+00  0.0000E+00
     -8.623  0.0000E+00  0.0000E+00  0.0000E+00  0.0000E+00  0.0000E+00  0.0000E+00
     -8.510  0.0000E+00  0.6352E-03  0.0000E+00  0.1137E-03  0.0000E+00  0.5589E-05
     -8.397  0.2021E-02  0.2866E-02  0.3610E-03  0.5219E-03  0.2255E-04  0.2866E-04
     -8.284  0.4262E-02  0.5080E-02  0.7747E-03  0.9410E-03  0.5358E-04  0.5695E-04
     -8.171  0.6060E-02  0.5729E-02  0.1181E-02  0.1157E-02  0.1153E-03  0.1085E-03
     -8.058  0.5269E-02  0.4946E-02  0.1098E-02  0.1071E-02  0.1502E-03  0.1362E-03
     -7.945  0.4483E-02  0.4167E-02  0.1011E-02  0.9816E-03  0.1843E-03  0.1632E-03
     -7.833  0.4111E-02  0.4158E-02  0.9972E-03  0.1034E-02  0.2237E-03  0.1991E-03
     -7.720  0.4317E-02  0.4363E-02  0.1091E-02  0.1128E-02  0.2725E-03  0.2388E-03
     -7.607  0.4520E-02  0.4566E-02  0.1186E-02  0.1224E-02  0.3228E-03  0.2798E-03
     -7.494  0.4721E-02  0.4766E-02  0.1282E-02  0.1320E-02  0.3748E-03  0.3220E-03
     -7.381  0.4919E-02  0.4963E-02  0.1380E-02  0.1417E-02  0.4283E-03  0.3655E-03
     -7.268  0.8797E-02  0.1118E-01  0.1872E-02  0.2167E-02  0.5388E-03  0.4933E-03
     -7.155  0.1686E-01  0.1903E-01  0.2829E-02  0.3126E-02  0.7482E-03  0.6648E-03
     -7.042  0.2485E-01  0.2511E-01  0.3832E-02  0.4144E-02  0.9725E-03  0.8801E-03
     -6.930  0.2339E-01  0.2237E-01  0.4172E-02  0.4156E-02  0.1288E-02  0.1073E-02
     -6.817  0.2067E-01  0.1965E-01  0.4130E-02  0.4100E-02  0.1490E-02  0.1219E-02
     -6.704  0.1906E-01  0.1892E-01  0.4205E-02  0.4271E-02  0.1714E-02  0.1392E-02
     -6.591  0.1987E-01  0.1970E-01  0.4573E-02  0.4631E-02  0.1979E-02  0.1589E-02
     -6.478  0.2066E-01  0.2048E-01  0.4947E-02  0.4997E-02  0.2253E-02  0.1792E-02
     -6.365  0.2143E-01  0.2125E-01  0.5326E-02  0.5369E-02  0.2535E-02  0.2001E-02
     -6.252  0.2219E-01  0.2200E-01  0.5710E-02  0.5745E-02  0.2825E-02  0.2215E-02
     -6.139  0.2162E-01  0.2118E-01  0.5989E-02  0.5969E-02  0.3390E-02  0.2620E-02
     -6.026  0.2070E-01  0.2012E-01  0.6240E-02  0.6164E-02  0.4068E-02  0.3077E-02
     -5.914  0.1991E-01  0.1928E-01  0.6663E-02  0.6553E-02  0.5034E-02  0.3757E-02
     -5.801  0.1972E-01  0.1909E-01  0.6922E-02  0.6798E-02  0.5818E-02  0.4318E-02
     -5.688  0.1958E-01  0.1894E-01  0.7163E-02  0.7037E-02  0.6564E-02  0.4855E-02
     -5.575  0.2757E-01  0.2641E-01  0.7648E-02  0.7509E-02  0.8338E-02  0.6207E-02
     -5.462  0.4065E-01  0.3886E-01  0.8372E-02  0.8215E-02  0.1078E-01  0.8121E-02
     -5.349  0.4721E-01  0.4673E-01  0.9313E-02  0.9173E-02  0.1237E-01  0.9497E-02
     -5.236  0.4443E-01  0.4336E-01  0.9900E-02  0.9634E-02  0.1324E-01  0.9743E-02
     -5.123  0.4281E-01  0.4004E-01  0.1141E-01  0.1026E-01  0.1720E-01  0.1050E-01
     -5.010  0.4428E-01  0.4125E-01  0.1288E-01  0.1155E-01  0.2140E-01  0.1313E-01
     -4.898  0.4492E-01  0.4233E-01  0.1362E-01  0.1269E-01  0.2435E-01  0.1552E-01
     -4.785  0.4641E-01  0.4318E-01  0.1518E-01  0.1340E-01  0.3098E-01  0.1727E-01
     -4.672  0.5083E-01  0.4393E-01  0.1969E-01  0.1422E-01  0.4880E-01  0.1937E-01
     -4.559  0.5157E-01  0.4492E-01  0.1943E-01  0.1677E-01  0.4815E-01  0.2596E-01
     -4.446  0.5471E-01  0.4480E-01  0.1923E-01  0.1762E-01  0.5123E-01  0.2815E-01
     -4.333  0.8695E-01  0.4683E-01  0.3474E-01  0.2157E-01  0.1425E+00  0.4042E-01
     -4.220  0.6980E-01  0.5188E-01  0.2748E-01  0.2203E-01  0.1365E+00  0.4979E-01
     -4.107  0.5831E-01  0.6328E-01  0.2448E-01  0.2254E-01  0.1316E+00  0.6244E-01
     -3.994  0.5521E-01  0.9389E-01  0.2390E-01  0.4050E-01  0.1278E+00  0.1492E+00
     -3.882  0.1275E+00  0.6786E-01  0.4891E-01  0.2847E-01  0.3618E+00  0.1036E+00
     -3.769  0.8044E-01  0.5368E-01  0.1810E-01  0.2447E-01  0.2373E+00  0.9555E-01
     -3.656  0.6877E-01  0.4303E-01  0.2692E-01  0.1596E-01  0.2580E+00  0.6577E-01
     -3.543  0.1455E+00  0.4713E-01  0.4192E-01  0.1682E-01  0.6369E+00  0.7975E-01
     -3.430  0.6005E-01  0.1486E+00  0.3304E-01  0.6296E-01  0.4578E+00  0.3260E+00
     -3.317  0.1691E-01  0.6377E-01  0.2874E-01  0.1588E-01  0.4731E+00  0.1648E+00
     -3.204  0.3032E-02  0.9505E-01  0.2073E-01  0.2394E-01  0.4340E+00  0.2722E+00
     -3.091  0.4074E-02  0.7349E-01  0.2571E-01  0.2951E-01  0.6657E+00  0.2805E+00
     -2.978  0.5372E-02  0.6110E-01  0.2478E-01  0.5402E-01  0.5700E+00  0.5683E+00
     -2.866  0.7865E-02  0.9924E-02  0.3836E-01  0.1654E-01  0.1136E+01  0.2258E+00
     -2.753  0.1932E-01  0.9928E-02  0.3809E-01  0.2779E-01  0.1294E+01  0.4332E+00
     -2.640  0.1140E-01  0.4201E-02  0.2704E-01  0.2814E-01  0.1260E+01  0.4262E+00
     -2.527  0.1308E-01  0.2622E-02  0.2237E-01  0.2835E-01  0.5980E+00  0.4241E+00
     -2.414  0.1421E-01  0.2955E-02  0.2168E-01  0.2944E-01  0.7752E+00  0.6494E+00
     -2.301  0.2046E-01  0.6198E-02  0.2746E-01  0.4915E-01  0.1561E+01  0.1104E+01
     -2.188  0.1007E-01  0.1285E-01  0.2602E-01  0.4190E-01  0.1320E+01  0.1046E+01
     -2.075  0.6066E-02  0.1079E-01  0.2216E-01  0.3787E-01  0.1396E+01  0.7216E+00
     -1.962  0.1084E-01  0.1269E-01  0.2163E-01  0.3048E-01  0.1454E+01  0.5816E+00
     -1.850  0.1970E-01  0.1274E-01  0.3473E-01  0.2177E-01  0.1874E+01  0.4833E+00
     -1.737  0.1923E-01  0.1356E-01  0.3265E-01  0.1959E-01  0.1817E+01  0.5820E+00
     -1.624  0.2704E-01  0.1055E-01  0.5091E-01  0.3971E-01  0.1628E+01  0.1641E+01
     -1.511  0.1698E-01  0.1234E-01  0.4455E-01  0.2972E-01  0.1498E+01  0.2023E+01
     -1.398  0.1629E-01  0.9677E-02  0.3731E-01  0.1812E-01  0.1222E+01  0.9453E+00
     -1.285  0.1810E-01  0.5128E-02  0.3289E-01  0.2141E-01  0.1876E+01  0.1154E+01
     -1.172  0.1701E-01  0.3029E-01  0.3640E-01  0.8403E-01  0.1952E+01  0.2302E+01
     -1.059  0.1500E-01  0.2310E-01  0.3067E-01  0.4182E-01  0.2215E+01  0.1782E+01
     -0.946  0.2002E-01  0.1803E-01  0.2876E-01  0.3852E-01  0.2215E+01  0.1409E+01
     -0.834  0.2189E-01  0.1723E-01  0.2853E-01  0.3963E-01  0.2129E+01  0.1261E+01
     -0.721  0.1512E-01  0.1337E-01  0.2483E-01  0.2468E-01  0.2830E+01  0.1249E+01
     -0.608  0.2244E-01  0.1225E-01  0.1708E-01  0.2739E-01  0.1588E+01  0.1605E+01
     -0.495  0.2689E-01  0.1594E-01  0.2095E-01  0.5550E-01  0.7231E+00  0.2098E+01
     -0.382  0.1915E-01  0.1718E-01  0.1904E-01  0.5063E-01  0.4525E+00  0.2166E+01
     -0.269  0.1973E-01  0.2196E-01  0.2008E-01  0.5185E-01  0.1401E+00  0.2170E+01
     -0.156  0.2031E-01  0.1804E-01  0.2205E-01  0.3011E-01  0.1286E+00  0.1613E+01
     -0.043  0.2025E-01  0.1700E-01  0.2373E-01  0.2595E-01  0.1158E+00  0.1199E+01
      0.070  0.2279E-01  0.2994E-01  0.3501E-01  0.2705E-01  0.1372E+00  0.2601E+01
      0.182  0.2217E-01  0.2490E-01  0.3388E-01  0.2565E-01  0.1179E+00  0.2980E+01
      0.295  0.2313E-01  0.1726E-01  0.3789E-01  0.2254E-01  0.1057E+00  0.6865E+00
      0.408  0.2243E-01  0.1725E-01  0.3262E-01  0.2438E-01  0.8426E-01  0.5113E+00
      0.521  0.2227E-01  0.1574E-01  0.3272E-01  0.2722E-01  0.7751E-01  0.2258E+00
      0.634  0.2154E-01  0.1638E-01  0.3251E-01  0.2770E-01  0.6449E-01  0.1948E+00
      0.747  0.2121E-01  0.1668E-01  0.3387E-01  0.2952E-01  0.6103E-01  0.1634E+00
      0.860  0.2085E-01  0.1793E-01  0.3515E-01  0.3431E-01  0.5736E-01  0.1537E+00
      0.973  0.2047E-01  0.1803E-01  0.3639E-01  0.3395E-01  0.5421E-01  0.1249E+00
      1.086  0.1897E-01  0.1831E-01  0.3457E-01  0.3567E-01  0.4838E-01  0.1126E+00
      1.198  0.1829E-01  0.1804E-01  0.3583E-01  0.3629E-01  0.4524E-01  0.9523E-01
      1.311  0.1742E-01  0.1795E-01  0.3566E-01  0.3715E-01  0.4104E-01  0.8686E-01
      1.424  0.1774E-01  0.1697E-01  0.3829E-01  0.3532E-01  0.3965E-01  0.7856E-01
      1.537  0.1870E-01  0.1642E-01  0.4600E-01  0.3505E-01  0.4347E-01  0.7179E-01
      1.650  0.1784E-01  0.1568E-01  0.5405E-01  0.3622E-01  0.4639E-01  0.6269E-01
      1.763  0.1661E-01  0.1665E-01  0.5258E-01  0.5132E-01  0.4408E-01  0.6997E-01
      1.876  0.1538E-01  0.1583E-01  0.5055E-01  0.4990E-01  0.4148E-01  0.6678E-01
      1.989  0.1448E-01  0.1502E-01  0.4738E-01  0.4906E-01  0.3888E-01  0.6396E-01
      2.102  0.1464E-01  0.1410E-01  0.5318E-01  0.4847E-01  0.4471E-01  0.6053E-01
      2.214  0.1441E-01  0.1322E-01  0.5101E-01  0.4582E-01  0.4364E-01  0.5595E-01
      2.327  0.1335E-01  0.1254E-01  0.4678E-01  0.4270E-01  0.3781E-01  0.5169E-01
      2.440  0.1242E-01  0.1298E-01  0.4515E-01  0.4654E-01  0.3542E-01  0.5721E-01
      2.553  0.1176E-01  0.1226E-01  0.4694E-01  0.4490E-01  0.3485E-01  0.5470E-01
      2.666  0.1128E-01  0.1145E-01  0.4745E-01  0.4180E-01  0.3493E-01  0.4796E-01
      2.779  0.1069E-01  0.1104E-01  0.4687E-01  0.4311E-01  0.3443E-01  0.4751E-01
      2.892  0.1011E-01  0.1063E-01  0.4627E-01  0.4484E-01  0.3387E-01  0.4676E-01
      3.005  0.9711E-02  0.1002E-01  0.4325E-01  0.4448E-01  0.3004E-01  0.4573E-01
      3.118  0.9278E-02  0.9412E-02  0.4333E-01  0.4402E-01  0.2969E-01  0.4479E-01
      3.230  0.8867E-02  0.9164E-02  0.4359E-01  0.4207E-01  0.2940E-01  0.4019E-01
      3.343  0.8486E-02  0.8704E-02  0.4410E-01  0.4232E-01  0.2920E-01  0.3964E-01
      3.456  0.8132E-02  0.8281E-02  0.4456E-01  0.4284E-01  0.2854E-01  0.3924E-01
      3.569  0.7753E-02  0.7872E-02  0.4424E-01  0.4339E-01  0.2782E-01  0.3884E-01
      3.682  0.8283E-02  0.7488E-02  0.4836E-01  0.4366E-01  0.2819E-01  0.3756E-01
      3.795  0.8112E-02  0.6665E-02  0.4660E-01  0.3807E-01  0.2572E-01  0.3307E-01
      3.908  0.7891E-02  0.7977E-02  0.4448E-01  0.4681E-01  0.2322E-01  0.3528E-01
      4.021  0.7676E-02  0.7828E-02  0.4332E-01  0.4494E-01  0.2156E-01  0.3136E-01
      4.134  0.5018E-02  0.7633E-02  0.2925E-01  0.4323E-01  0.1772E-01  0.2806E-01
      4.246  0.9242E-02  0.4753E-02  0.4124E-01  0.2750E-01  0.2142E-01  0.2231E-01
      4.359  0.5048E-02  0.4902E-02  0.3330E-01  0.2751E-01  0.1705E-01  0.2206E-01
      4.472  0.4283E-02  0.8567E-02  0.3183E-01  0.3906E-01  0.1632E-01  0.2601E-01
      4.585  0.4083E-01  0.4560E-02  0.4293E-01  0.3169E-01  0.3870E-01  0.2041E-01
      4.698  0.4764E-01  0.4523E-02  0.4594E-01  0.3149E-01  0.4356E-01  0.2024E-01
      4.811  0.5151E-01  0.3835E-01  0.5108E-01  0.4280E-01  0.4642E-01  0.4579E-01
      4.924  0.5670E-01  0.4506E-01  0.6053E-01  0.4611E-01  0.5208E-01  0.5176E-01