    5    5    1    2
  0.2199349E+02  0.2496087E-09  0.2496087E-09  0.1765000E-08  0.5000000E-15
  1.000000000000000E-004
  CAR 
 clean (100) Ni surface                  
     50     15     48
 
  0.0000000E+00  0.0000000E+00  0.0000000E+00  0.1234568E-01
    1       -8.498109     -8.541922   1.000000   1.000000
    2       -7.318868     -7.354423   1.000000   1.000000
    3       -5.643416     -5.642182   1.000000   1.000000
    4       -4.505867     -4.329040   1.000000   1.000000
    5       -4.427152     -4.145381   1.000000   1.000000
    6       -3.987147     -3.445400   1.000000   1.000000
    7       -3.630276     -3.070966   1.000000   1.000000
    8       -3.117738     -2.476471   1.000000   1.000000
    9       -2.641688     -1.992371   1.000000   1.000000
   10       -2.405770     -1.745712   1.000000   1.000000
   11       -2.273861     -1.548895   1.000000   1.000000
   12       -2.273861     -1.548895   1.000000   1.000000
   13       -1.907577     -1.217748   1.000000   1.000000
   14       -1.907577     -1.143904   1.000000   1.000000
   15       -1.719214     -1.143904   1.000000   1.000000
   16       -1.447466     -0.914236   1.000000   1.000000
   17       -1.314185     -0.892151   1.000000   1.000000
   18       -1.314185     -0.704637   1.000000   1.000000
   19       -1.260603     -0.581747   1.000000   1.000000
   20       -1.218198     -0.531278   1.000000   1.000000
   21       -1.137156     -0.531278   1.000000   1.000000
   22       -1.063726     -0.387292   1.000000   1.000000
   23       -0.794450     -0.123981   1.000000   1.000000
   24       -0.794450      0.047456   1.000000   0.811788
   25       -0.791188      0.047456   1.000000   0.078338
   26       -0.625541      0.146647   1.000000   0.000000
   27       -0.551117      0.181618   1.000000   0.000000
   28       -0.518762      0.317211   1.000000   0.000000
   29       -0.518762      0.317211   1.016290   0.000000
   30        0.598792      0.641964   0.000000   0.000000
   31        1.952535      1.929243   0.000000   0.000000
   32        4.516050      4.616661   0.000000   0.000000
   33        5.857551      5.866644   0.000000   0.000000
   34        7.737703      7.864633   0.000000   0.000000
   35       10.865926     10.938220   0.000000   0.000000
   36       11.533063     11.656785   0.000000   0.000000
   37       15.371321     15.388997   0.000000   0.000000
   38       15.371321     15.388997   0.000000   0.000000
   39       15.698952     15.741363   0.000000   0.000000
   40       16.296400     16.366671   0.000000   0.000000
   41       16.936177     16.987147   0.000000   0.000000
   42       16.936177     16.987147   0.000000   0.000000
   43       19.273266     19.340180   0.000000   0.000000
   44       19.273266     19.340180   0.000000   0.000000
   45       19.818566     19.927703   0.000000   0.000000
   46       20.378326     20.461521   0.000000   0.000000
   47       21.259121     21.257059   0.000000   0.000000
   48       21.278929     21.324479   0.000000   0.000000
 
  0.1111111E+00  0.0000000E+00  0.0000000E+00  0.4938272E-01
    1       -8.186375     -8.229087   1.000000   1.000000
    2       -7.027038     -7.059016   1.000000   1.000000
    3       -5.392285     -5.379551   1.000000   1.000000
    4       -4.312342     -4.107635   1.000000   1.000000
    5       -4.242016     -3.959544   1.000000   1.000000
    6       -3.887592     -3.350518   1.000000   1.000000
    7       -3.545231     -2.993157   1.000000   1.000000
    8       -3.065794     -2.431776   1.000000   1.000000
    9       -2.634155     -1.983339   1.000000   1.000000
   10       -2.337438     -1.674014   1.000000   1.000000
   11       -2.296068     -1.586429   1.000000   1.000000
   12       -2.233163     -1.508309   1.000000   1.000000
   13       -2.115305     -1.473809   1.000000   1.000000
   14       -1.931690     -1.321997   1.000000   1.000000
   15       -1.838802     -1.188060   1.000000   1.000000
   16       -1.517179     -0.868716   1.000000   1.000000
   17       -1.477783     -0.830786   1.000000   1.000000
   18       -1.384753     -0.749721   1.000000   1.000000
   19       -1.279368     -0.682729   1.000000   1.000000
   20       -1.242783     -0.620120   1.000000   1.000000
   21       -1.102610     -0.481555   1.000000   1.000000
   22       -1.023903     -0.327859   1.000000   1.000000
   23       -1.020367     -0.293408   1.000000   1.000000
   24       -0.992485     -0.275053   1.000000   1.020030
   25       -0.713783      0.036988   1.000000   0.421635
   26       -0.706347      0.061816   1.000000   0.000000
   27       -0.579140      0.076022   1.000000   0.000000
   28       -0.498349      0.178765   1.000000   0.000000
   29       -0.423804      0.326643   0.926801   0.000000
   30        1.201395      1.408457   0.000000   0.000000
   31        2.647267      2.752440   0.000000   0.000000
   32        4.814213      4.916466   0.000000   0.000000
   33        6.193953      6.208602   0.000000   0.000000
   34        7.987176      8.113691   0.000000   0.000000
   35       11.141495     11.212369   0.000000   0.000000
   36       11.683741     11.797519   0.000000   0.000000
   37       12.750889     12.825982   0.000000   0.000000
   38       13.964291     14.054810   0.000000   0.000000
   39       15.726480     15.790606   0.000000   0.000000
   40       15.834643     15.860712   0.000000   0.000000
   41       16.114882     16.180408   0.000000   0.000000
   42       16.602391     16.673464   0.000000   0.000000
   43       17.362189     17.419256   0.000000   0.000000
   44       17.945112     17.994442   0.000000   0.000000
   45       19.658581     19.729508   0.000000   0.000000
   46       20.058098     20.058517   0.000000   0.000000
   47       20.976452     21.054040   0.000000   0.000000
   48       21.266719     21.284843   0.000000   0.000000
 
  0.2222222E+00  0.0000000E+00  0.0000000E+00  0.4938272E-01
    1       -7.295275     -7.329956   1.000000   1.000000
    2       -6.229574     -6.236999   1.000000   1.000000
    3       -4.819079     -4.724496   1.000000   1.000000
    4       -3.944146     -3.629275   1.000000   1.000000
    5       -3.849938     -3.494459   1.000000   1.000000
    6       -3.598521     -3.115430   1.000000   1.000000
    7       -3.207125     -2.743780   1.000000   1.000000
    8       -2.809976     -2.252511   1.000000   1.000000
    9       -2.666303     -2.033328   1.000000   1.000000
   10       -2.289539     -1.713567   1.000000   1.000000
   11       -2.264900     -1.627066   1.000000   1.000000
   12       -2.212645     -1.573991   1.000000   1.000000
   13       -2.183481     -1.545520   1.000000   1.000000
   14       -2.146543     -1.432890   1.000000   1.000000
   15       -2.017772     -1.323426   1.000000   1.000000
   16       -1.794195     -1.137405   1.000000   1.000000
   17       -1.733271     -1.026795   1.000000   1.000000
   18       -1.668498     -1.008226   1.000000   1.000000
   19       -1.503171     -0.823549   1.000000   1.000000
   20       -1.185588     -0.599780   1.000000   1.000000
   21       -1.157906     -0.536065   1.000000   1.000000
   22       -1.126361     -0.510345   1.000000   1.000000
   23       -1.121633     -0.370184   1.000000   1.000000
   24       -0.909332     -0.349860   1.000000   1.000000
   25       -0.863731     -0.096418   1.000000   1.054561
   26       -0.711964      0.067808   1.000000   0.000000
   27       -0.555830      0.249948   1.000000   0.000000
   28       -0.536959      0.265659   1.020243   0.000000
   29        0.409755      0.782879  -0.008738   0.000000
   30        2.358207      2.566656   0.000000   0.000000
   31        4.076690      4.221382   0.000000   0.000000
   32        5.691962      5.794445   0.000000   0.000000
   33        7.195692      7.225267   0.000000   0.000000
   34        8.449767      8.579666   0.000000   0.000000
   35        9.066824      9.197886   0.000000   0.000000
   36        9.991465     10.136629   0.000000   0.000000
   37       11.701945     11.830684   0.000000   0.000000
   38       12.022065     12.090405   0.000000   0.000000
   39       12.503045     12.602008   0.000000   0.000000
   40       13.806095     13.889894   0.000000   0.000000
   41       15.943118     15.975360   0.000000   0.000000
   42       16.868194     16.908412   0.000000   0.000000
   43       17.156720     17.201996   0.000000   0.000000
   44       17.325240     17.381544   0.000000   0.000000
   45       17.856816     17.876784   0.000000   0.000000
   46       18.584541     18.655694   0.000000   0.000000
   47       18.997314     19.074421   0.000000   0.000000
   48       20.768300     20.848792   0.000000   0.000000
 
  0.3333333E+00  0.0000000E+00  0.0000000E+00  0.4938272E-01
    1       -5.997089     -5.990613   1.000000   1.000000
    2       -5.252943     -5.148929   1.000000   1.000000
    3       -4.459312     -4.155474   1.000000   1.000000
    4       -3.860632     -3.428077   1.000000   1.000000
    5       -3.567357     -3.088273   1.000000   1.000000
    6       -3.184806     -2.822944   1.000000   1.000000
    7       -2.701556     -2.289384   1.000000   1.000000
    8       -2.677029     -2.097171   1.000000   1.000000
    9       -2.388808     -1.849958   1.000000   1.000000
   10       -2.346268     -1.812262   1.000000   1.000000
   11       -2.277324     -1.674401   1.000000   1.000000
   12       -2.162560     -1.502008   1.000000   1.000000
   13       -2.150916     -1.497683   1.000000   1.000000
   14       -2.092431     -1.485420   1.000000   1.000000
   15       -2.035033     -1.432448   1.000000   1.000000
   16       -1.874041     -1.251110   1.000000   1.000000
   17       -1.802388     -1.210736   1.000000   1.000000
   18       -1.764131     -1.145888   1.000000   1.000000
   19       -1.709908     -1.106220   1.000000   1.000000
   20       -1.353210     -0.690674   1.000000   1.000000
   21       -1.252728     -0.491378   1.000000   1.000000
   22       -0.886033     -0.249959   1.000000   1.000000
   23       -0.879413     -0.108805   1.000000   1.070327
   24       -0.715624     -0.102456   1.000000   0.980937
   25       -0.714718      0.028723   1.000000   0.307150
   26       -0.630956      0.103559   1.051819   0.000000
   27       -0.560282      0.147468   1.038886   0.000000
   28       -0.497213      0.238433   0.947862   0.000000
   29        1.374131      1.622509   0.000000   0.000000
   30        3.533639      3.684439   0.000000   0.000000
   31        5.378677      5.597842   0.000000   0.000000
   32        5.498153      5.624594   0.000000   0.000000
   33        6.916786      7.143529   0.000000   0.000000
   34        7.203219      7.312477   0.000000   0.000000
   35        8.228820      8.432582   0.000000   0.000000
   36        8.775476      8.822705   0.000000   0.000000
   37       10.080736     10.191439   0.000000   0.000000
   38       10.267574     10.397705   0.000000   0.000000
   39       12.277934     12.356665   0.000000   0.000000
   40       13.393346     13.442706   0.000000   0.000000
   41       13.700276     13.770334   0.000000   0.000000
   42       14.269268     14.324594   0.000000   0.000000
   43       15.174925     15.261399   0.000000   0.000000
   44       17.153698     17.197349   0.000000   0.000000
   45       17.511506     17.579074   0.000000   0.000000
   46       18.322579     18.369257   0.000000   0.000000
   47       18.575857     18.616552   0.000000   0.000000
   48       19.183364     19.248057   0.000000   0.000000
 
  0.4444444E+00  0.0000000E+00  0.0000000E+00  0.4938272E-01
    1       -4.800504     -4.604302   1.000000   1.000000
    2       -4.687422     -4.373057   1.000000   1.000000
    3       -4.377068     -4.009846   1.000000   1.000000
    4       -3.946954     -3.516935   1.000000   1.000000
    5       -3.597438     -3.254227   1.000000   1.000000
    6       -2.778823     -2.344939   1.000000   1.000000
    7       -2.735468     -2.133921   1.000000   1.000000
    8       -2.479384     -1.961516   1.000000   1.000000
    9       -2.421516     -1.896459   1.000000   1.000000
   10       -2.308652     -1.749073   1.000000   1.000000
   11       -2.264858     -1.629425   1.000000   1.000000
   12       -2.249549     -1.616000   1.000000   1.000000
   13       -2.204524     -1.614396   1.000000   1.000000
   14       -2.119273     -1.543004   1.000000   1.000000
   15       -1.934424     -1.513860   1.000000   1.000000
   16       -1.928104     -1.288784   1.000000   1.000000
   17       -1.909244     -1.179627   1.000000   1.000000
   18       -1.506757     -0.835777   1.000000   1.000000
   19       -1.264749     -0.782362   1.000000   1.000000
   20       -1.190538     -0.414501   1.000000   1.000000
   21       -0.896392     -0.216323   1.000000   1.000000
   22       -0.790729     -0.097438   1.000000   1.000000
   23       -0.772299      0.010131   1.000000   0.346500
   24       -0.641177      0.145318   1.000000  -0.037813
   25       -0.594814      0.198247   1.000000  -0.020109
   26       -0.033541      0.228254   0.569127   0.000000
   27        0.013724      0.471590   0.335220   0.000000
   28        0.284760      0.790162   0.032885   0.000000
   29        1.553980      1.750057   0.000000   0.000000
   30        1.995917      2.351838   0.000000   0.000000
   31        4.565124      4.803957   0.000000   0.000000
   32        4.737976      4.943261   0.000000   0.000000
   33        6.823008      7.062718   0.000000   0.000000
   34        7.156594      7.389738   0.000000   0.000000
   35        8.493127      8.588033   0.000000   0.000000
   36        9.018950      9.100708   0.000000   0.000000
   37        9.524754      9.647704   0.000000   0.000000
   38       10.867727     10.947771   0.000000   0.000000
   39       11.293888     11.342661   0.000000   0.000000
   40       11.844231     11.928744   0.000000   0.000000
   41       12.003012     12.113060   0.000000   0.000000
   42       13.935476     13.990547   0.000000   0.000000
   43       14.430028     14.519819   0.000000   0.000000
   44       15.453764     15.510573   0.000000   0.000000
   45       15.554503     15.619063   0.000000   0.000000
   46       18.045485     18.094506   0.000000   0.000000
   47       18.069518     18.121029   0.000000   0.000000
   48       20.206714     20.219854   0.000000   0.000000
 
  0.1111111E+00  0.1111111E+00  0.0000000E+00  0.4938272E-01
    1       -7.879296     -7.920759   1.000000   1.000000
    2       -6.738778     -6.767199   1.000000   1.000000
    3       -5.142284     -5.119613   1.000000   1.000000
    4       -4.130090     -3.890110   1.000000   1.000000
    5       -4.048100     -3.783805   1.000000   1.000000
    6       -3.785312     -3.247118   1.000000   1.000000
    7       -3.472665     -2.917765   1.000000   1.000000
    8       -3.039934     -2.404865   1.000000   1.000000
    9       -2.683868     -2.024250   1.000000   1.000000
   10       -2.271835     -1.609477   1.000000   1.000000
   11       -2.263065     -1.590925   1.000000   1.000000
   12       -2.226621     -1.564610   1.000000   1.000000
   13       -2.163226     -1.548842   1.000000   1.000000
   14       -2.112715     -1.459650   1.000000   1.000000
   15       -1.926992     -1.172894   1.000000   1.000000
   16       -1.648286     -0.991558   1.000000   1.000000
   17       -1.436058     -0.852576   1.000000   1.000000
   18       -1.397650     -0.797688   1.000000   1.000000
   19       -1.363349     -0.736291   1.000000   1.000000
   20       -1.346836     -0.665637   1.000000   1.000000
   21       -1.284870     -0.571704   1.000000   1.000000
   22       -1.135097     -0.502015   1.000000   1.000000
   23       -1.013837     -0.424741   1.000000   1.000000
   24       -0.845042     -0.151393   1.000000   1.002945
   25       -0.820611     -0.094052   1.000000   1.038765
   26       -0.764889      0.016096   1.000000   0.000000
   27       -0.681740      0.039869   1.000000   0.000000
   28       -0.528035      0.305314   1.013529   0.000000
   29        0.034080      0.540698   0.359639   0.000000
   30        1.674847      1.910522   0.000000   0.000000
   31        3.188089      3.321461   0.000000   0.000000
   32        5.111605      5.215162   0.000000   0.000000
   33        6.529609      6.549541   0.000000   0.000000
   34        8.237779      8.363477   0.000000   0.000000
   35       11.420240     11.489781   0.000000   0.000000
   36       11.892763     12.000953   0.000000   0.000000
   37       12.640379     12.732932   0.000000   0.000000
   38       13.617364     13.675791   0.000000   0.000000
   39       13.928993     14.039928   0.000000   0.000000
   40       14.701797     14.770511   0.000000   0.000000
   41       15.779895     15.886917   0.000000   0.000000
   42       16.130737     16.166590   0.000000   0.000000
   43       16.743478     16.810007   0.000000   0.000000
   44       16.972802     17.044782   0.000000   0.000000
   45       17.915930     17.982024   0.000000   0.000000
   46       18.569711     18.593729   0.000000   0.000000
   47       20.106921     20.113767   0.000000   0.000000
   48       20.612995     20.603614   0.000000   0.000000
 
  0.2222222E+00  0.1111111E+00  0.0000000E+00  0.9876543E-01
    1       -7.006051     -7.038368   1.000000   1.000000
    2       -5.955805     -5.959034   1.000000   1.000000
    3       -4.579122     -4.477077   1.000000   1.000000
    4       -3.762057     -3.428475   1.000000   1.000000
    5       -3.675264     -3.350346   1.000000   1.000000
    6       -3.506972     -2.998353   1.000000   1.000000
    7       -3.176179     -2.692135   1.000000   1.000000
    8       -2.888732     -2.298176   1.000000   1.000000
    9       -2.808570     -2.165792   1.000000   1.000000
   10       -2.483496     -1.926897   1.000000   1.000000
   11       -2.319008     -1.704800   1.000000   1.000000
   12       -2.169137     -1.499777   1.000000   1.000000
   13       -2.141106     -1.466168   1.000000   1.000000
   14       -2.114860     -1.431975   1.000000   1.000000
   15       -1.978516     -1.302547   1.000000   1.000000
   16       -1.906353     -1.246316   1.000000   1.000000
   17       -1.790906     -1.100724   1.000000   1.000000
   18       -1.633926     -0.992105   1.000000   1.000000
   19       -1.444655     -0.790074   1.000000   1.000000
   20       -1.376355     -0.764200   1.000000   1.000000
   21       -1.278804     -0.625644   1.000000   1.000000
   22       -1.071641     -0.451342   1.000000   1.000000
   23       -1.047024     -0.396403   1.000000   1.000000
   24       -0.991194     -0.252314   1.000000   1.000000
   25       -0.876083     -0.217232   1.000000   1.092641
   26       -0.735657      0.066719   1.000000   0.000000
   27       -0.559482      0.253513   1.000000   0.000000
   28       -0.386111      0.270939   0.960857   0.000000
   29        0.829087      1.241340  -0.030211   0.000000
   30        2.741349      2.955699   0.000000   0.000000
   31        4.469054      4.609042   0.000000   0.000000
   32        5.988806      6.091975   0.000000   0.000000
   33        7.526152      7.559455   0.000000   0.000000
   34        8.748540      8.878586   0.000000   0.000000
   35        9.292020      9.423677   0.000000   0.000000
   36       10.254583     10.400340   0.000000   0.000000
   37       11.962469     12.089934   0.000000   0.000000
   38       12.293379     12.360410   0.000000   0.000000
   39       12.674992     12.769337   0.000000   0.000000
   40       14.060376     14.142295   0.000000   0.000000
   41       14.313631     14.391673   0.000000   0.000000
   42       15.363190     15.447884   0.000000   0.000000
   43       16.202548     16.233763   0.000000   0.000000
   44       16.909633     16.956611   0.000000   0.000000
   45       17.386306     17.452793   0.000000   0.000000
   46       17.710259     17.768038   0.000000   0.000000
   47       18.112290     18.136038   0.000000   0.000000
   48       19.113401     19.143800   0.000000   0.000000
 
  0.3333333E+00  0.1111111E+00  0.0000000E+00  0.9876543E-01
    1       -5.751460     -5.738416   1.000000   1.000000
    2       -5.014070     -4.901717   1.000000   1.000000
    3       -4.261291     -3.941578   1.000000   1.000000
    4       -3.696091     -3.246094   1.000000   1.000000
    5       -3.372132     -2.901357   1.000000   1.000000
    6       -3.265183     -2.872344   1.000000   1.000000
    7       -2.882203     -2.370172   1.000000   1.000000
    8       -2.782758     -2.284937   1.000000   1.000000
    9       -2.594649     -2.036097   1.000000   1.000000
   10       -2.528012     -1.977841   1.000000   1.000000
   11       -2.336494     -1.758304   1.000000   1.000000
   12       -2.252227     -1.648206   1.000000   1.000000
   13       -2.189185     -1.592538   1.000000   1.000000
   14       -2.011661     -1.378671   1.000000   1.000000
   15       -1.967086     -1.350163   1.000000   1.000000
   16       -1.884233     -1.252784   1.000000   1.000000
   17       -1.814118     -1.191604   1.000000   1.000000
   18       -1.771553     -1.059344   1.000000   1.000000
   19       -1.617349     -0.985385   1.000000   1.000000
   20       -1.268601     -0.629248   1.000000   1.000000
   21       -1.121827     -0.415980   1.000000   1.000000
   22       -1.075824     -0.395985   1.000000   1.000000
   23       -0.847812     -0.168905   1.000000   1.067035
   24       -0.750286     -0.109737   1.000000   0.978606
   25       -0.703546     -0.011011   1.000000   0.453430
   26       -0.647455      0.138641   1.028129   0.000000
   27       -0.599821      0.187166   0.991228   0.000000
   28        0.121271      0.655728   0.271790   0.000000
   29        1.838830      2.118110   0.000000   0.000000
   30        3.939025      4.095289   0.000000   0.000000
   31        5.617658      5.835026   0.000000   0.000000
   32        5.851550      5.976027   0.000000   0.000000
   33        7.108834      7.323041   0.000000   0.000000
   34        7.487774      7.594493   0.000000   0.000000
   35        8.447218      8.640868   0.000000   0.000000
   36        9.096303      9.144410   0.000000   0.000000
   37       10.320029     10.428517   0.000000   0.000000
   38       10.500045     10.622989   0.000000   0.000000
   39       12.526109     12.599507   0.000000   0.000000
   40       13.673845     13.723183   0.000000   0.000000
   41       13.914215     13.982080   0.000000   0.000000
   42       14.515256     14.565979   0.000000   0.000000
   43       15.445758     15.529429   0.000000   0.000000
   44       15.919031     15.998622   0.000000   0.000000
   45       16.856692     16.932580   0.000000   0.000000
   46       17.429256     17.471186   0.000000   0.000000
   47       17.742638     17.816614   0.000000   0.000000
   48       18.286464     18.320686   0.000000   0.000000
 
  0.4444444E+00  0.1111111E+00  0.0000000E+00  0.9876543E-01
    1       -4.615597     -4.413068   1.000000   1.000000
    2       -4.488381     -4.159072   1.000000   1.000000
    3       -4.211295     -3.827130   1.000000   1.000000
    4       -3.833637     -3.381931   1.000000   1.000000
    5       -3.491549     -3.154208   1.000000   1.000000
    6       -2.955081     -2.473043   1.000000   1.000000
    7       -2.900832     -2.319582   1.000000   1.000000
    8       -2.615546     -2.147749   1.000000   1.000000
    9       -2.569504     -2.031205   1.000000   1.000000
   10       -2.489167     -1.981233   1.000000   1.000000
   11       -2.424994     -1.793136   1.000000   1.000000
   12       -2.304474     -1.728828   1.000000   1.000000
   13       -2.198219     -1.640888   1.000000   1.000000
   14       -2.066172     -1.447330   1.000000   1.000000
   15       -1.950862     -1.351124   1.000000   1.000000
   16       -1.912188     -1.261780   1.000000   1.000000
   17       -1.755955     -1.116488   1.000000   1.000000
   18       -1.507303     -0.913269   1.000000   1.000000
   19       -1.446071     -0.780044   1.000000   1.000000
   20       -1.070928     -0.469726   1.000000   1.000000
   21       -1.034032     -0.249903   1.000000   1.000000
   22       -0.905092     -0.198492   1.000000   1.000000
   23       -0.715263      0.009599   1.000000   0.344340
   24       -0.681216      0.020543   1.000000   0.235656
   25       -0.598501      0.174920   1.000000  -0.014830
   26        0.295943      0.847027   0.113967   0.000000
   27        0.396979      0.875198   0.056403   0.000000
   28        1.049000      1.331523  -0.032239   0.000000
   29        2.115673      2.335933   0.000000   0.000000
   30        2.261236      2.607233   0.000000   0.000000
   31        4.772807      5.010352   0.000000   0.000000
   32        4.993673      5.199726   0.000000   0.000000
   33        6.994547      7.213096   0.000000   0.000000
   34        7.344200      7.559542   0.000000   0.000000
   35        8.736876      8.823896   0.000000   0.000000
   36        9.294582      9.372897   0.000000   0.000000
   37        9.758665      9.874560   0.000000   0.000000
   38       11.143666     11.216790   0.000000   0.000000
   39       11.567756     11.613868   0.000000   0.000000
   40       12.100913     12.182159   0.000000   0.000000
   41       12.264842     12.371950   0.000000   0.000000
   42       14.211923     14.263603   0.000000   0.000000
   43       14.668350     14.756428   0.000000   0.000000
   44       15.711229     15.767069   0.000000   0.000000
   45       15.764489     15.826104   0.000000   0.000000
   46       17.993227     18.059743   0.000000   0.000000
   47       18.250707     18.297401   0.000000   0.000000
   48       18.280996     18.333011   0.000000   0.000000
 
  0.2222222E+00  0.2222222E+00  0.0000000E+00  0.4938272E-01
    1       -6.205795     -6.221876   1.000000   1.000000
    2       -5.232332     -5.206383   1.000000   1.000000
    3       -4.045795     -3.884231   1.000000   1.000000
    4       -3.531290     -3.162669   1.000000   1.000000
    5       -3.271755     -2.955524   1.000000   1.000000
    6       -3.200979     -2.663263   1.000000   1.000000
    7       -3.115121     -2.526810   1.000000   1.000000
    8       -3.076220     -2.462944   1.000000   1.000000
    9       -2.968824     -2.346495   1.000000   1.000000
   10       -2.888649     -2.342415   1.000000   1.000000
   11       -2.471485     -1.911223   1.000000   1.000000
   12       -2.341256     -1.710272   1.000000   1.000000
   13       -2.170028     -1.545288   1.000000   1.000000
   14       -1.957734     -1.241825   1.000000   1.000000
   15       -1.926620     -1.209518   1.000000   1.000000
   16       -1.808889     -1.100076   1.000000   1.000000
   17       -1.646906     -1.048079   1.000000   1.000000
   18       -1.593482     -0.934630   1.000000   1.000000
   19       -1.441345     -0.897383   1.000000   1.000000
   20       -1.417086     -0.788215   1.000000   1.000000
   21       -1.321890     -0.600655   1.000000   1.000000
   22       -1.250480     -0.576350   1.000000   1.000000
   23       -1.209852     -0.575625   1.000000   1.000000
   24       -0.927403     -0.318710   1.000000   1.015308
   25       -0.859773     -0.036133   1.000000   0.810043
   26       -0.618932      0.032077   1.000000   0.000000
   27       -0.545848      0.282659   0.993371   0.000000
   28        0.203002      0.779043   0.183447   0.000000
   29        1.710264      2.078622   0.000000   0.000000
   30        3.726901      3.922387   0.000000   0.000000
   31        5.537074      5.659373   0.000000   0.000000
   32        6.868490      6.970321   0.000000   0.000000
   33        8.502276      8.543776   0.000000   0.000000
   34        9.030474      9.174523   0.000000   0.000000
   35        9.679505      9.795765   0.000000   0.000000
   36       10.310387     10.461853   0.000000   0.000000
   37       11.250218     11.371787   0.000000   0.000000
   38       12.118021     12.231176   0.000000   0.000000
   39       12.184343     12.322676   0.000000   0.000000
   40       13.198148     13.267545   0.000000   0.000000
   41       13.300982     13.394903   0.000000   0.000000
   42       13.782581     13.851725   0.000000   0.000000
   43       14.426278     14.522754   0.000000   0.000000
   44       15.322930     15.363507   0.000000   0.000000
   45       16.814360     16.862848   0.000000   0.000000
   46       17.106812     17.109750   0.000000   0.000000
   47       18.068070     18.111698   0.000000   0.000000
   48       18.437076     18.484880   0.000000   0.000000
 
  0.3333333E+00  0.2222222E+00  0.0000000E+00  0.9876543E-01
    1       -5.145592     -5.091776   1.000000   1.000000
    2       -4.428075     -4.277579   1.000000   1.000000
    3       -3.821548     -3.446866   1.000000   1.000000
    4       -3.496628     -3.108221   1.000000   1.000000
    5       -3.467873     -2.949338   1.000000   1.000000
    6       -3.279840     -2.682953   1.000000   1.000000
    7       -3.058387     -2.574540   1.000000   1.000000
    8       -3.014433     -2.471347   1.000000   1.000000
    9       -2.824700     -2.261136   1.000000   1.000000
   10       -2.757361     -2.235992   1.000000   1.000000
   11       -2.597089     -2.057189   1.000000   1.000000
   12       -2.481488     -1.885811   1.000000   1.000000
   13       -2.250744     -1.662060   1.000000   1.000000
   14       -1.791795     -1.111048   1.000000   1.000000
   15       -1.760032     -1.080513   1.000000   1.000000
   16       -1.695596     -1.049951   1.000000   1.000000
   17       -1.610834     -0.985056   1.000000   1.000000
   18       -1.582957     -0.904274   1.000000   1.000000
   19       -1.425769     -0.811256   1.000000   1.000000
   20       -1.171014     -0.528789   1.000000   1.000000
   21       -1.147619     -0.476163   1.000000   1.000000