Automatically generated mesh
      15
Reciprocal lattice
    0.00000000000000    0.00000000000000    0.00000000000000             1
    0.11111111111111    0.00000000000000    0.00000000000000             4
    0.22222222222222    0.00000000000000    0.00000000000000             4
    0.33333333333333    0.00000000000000    0.00000000000000             4
    0.44444444444444    0.00000000000000    0.00000000000000             4
    0.11111111111111    0.11111111111111    0.00000000000000             4
    0.22222222222222    0.11111111111111    0.00000000000000             8
    0.33333333333333    0.11111111111111    0.00000000000000             8
    0.44444444444444    0.11111111111111    0.00000000000000             8
    0.22222222222222    0.22222222222222    0.00000000000000             4
    0.33333333333333    0.22222222222222    0.00000000000000             8
    0.44444444444444    0.22222222222222    0.00000000000000             8
    0.33333333333333    0.33333333333333    0.00000000000000             4
    0.44444444444444    0.33333333333333    0.00000000000000             8
    0.44444444444444    0.44444444444444    0.00000000000000             4
Tetrahedra
       111    0.00205761316872
         4         2         2         2         6
         4         1         2         2         2
         2         1         1         2         2
         2         2         2         6         6
         4         3         6         6         7
         4         2         3         6         6
         4         2         2         3         6
         4         3         6         7         7
         4         3         3         6         7
         4         2         3         3         6
         4         4         7         7         8
         4         3         4         7         7
         4         3         3         4         7
         4         4         7         8         8
         4         4         4         7         8
         4         3         4         4         7
         4         5         8         8         9
         4         4         5         8         8
         4         4         4         5         8
         4         5         8         9         9
         4         5         5         8         9
         4         4         5         5         8
         8         5         9         9         9
         8         5         5         9         9
         8         5         5         5         9
         4         4         8         9         9
         4         4         5         9         9
         4         4         5         5         9
         4         4         8         8         9
         4         4         4         8         9
         4         4         4         5         9
         4         3         7         8         8
         4         3         4         8         8
         4         3         4         4         8
         4         3         7         7         8
         4         3         3         7         8
         4         3         3         4         8
         4         2         6         7         7
         4         2         3         7         7
         4         2         3         3         7
         4         2         6         6         7
         4         2         2         6         7
         4         2         2         3         7
         4         1         2         6         6
         4         1         2         2         6
         4         1         1         2         6
         4         7         7         7        10
         4         6         7         7         7
         2         6         6         7         7
         2         7         7        10        10
         4         8        10        10        11
         4         7         8        10        10
         4         7         7         8        10
         4         8        10        11        11
         4         8         8        10        11
         4         7         8         8        10
         4         9        11        11        12
         4         8         9        11        11
         4         8         8         9        11
         4         9        11        12        12
         4         9         9        11        12
         4         8         9         9        11
         8         9        12        12        12
         8         9         9        12        12
         8         9         9         9        12
         4         8        11        12        12
         4         8         9        12        12
         4         8         9         9        12
         4         8        11        11        12
         4         8         8        11        12
         4         8         8         9        12
         4         7        10        11        11
         4         7         8        11        11
         4         7         8         8        11
         4         7        10        10        11
         4         7         7        10        11
         4         7         7         8        11
         4         6         7        10        10
         4         6         7         7        10
         4         6         6         7        10
         4        11        11        11        13
         4        10        11        11        11
         2        10        10        11        11
         2        11        11        13        13
         4        12        13        13        14
         4        11        12        13        13
         4        11        11        12        13
         4        12        13        14        14
         4        12        12        13        14
         4        11        12        12        13
         8        12        14        14        14
         8        12        12        14        14
         8        12        12        12        14
         4        11        13        14        14
         4        11        12        14        14
         4        11        12        12        14
         4        11        13        13        14
         4        11        11        13        14
         4        11        11        12        14
         4        10        11        13        13
         4        10        11        11        13
         4        10        10        11        13
        12        14        14        14        15
         4        13        14        14        14
         2        13        13        14        14
        10        14        14        15        15
         8        14        15        15        15
         4        13        14        15        15
         4        13        14        14        15
         4        13        13        14        15
         6        15        15        15        15
