       N       E                     dE             d eps       ncg     rms          rms(c)
DAV:   1     0.223685835589E+03    0.22369E+03   -0.15664E+04  2880   0.767E+02
DAV:   2    -0.186658359945E+02   -0.24235E+03   -0.22915E+03  3184   0.195E+02
DAV:   3    -0.305821638920E+02   -0.11916E+02   -0.11811E+02  3472   0.554E+01
DAV:   4    -0.306514944739E+02   -0.69331E-01   -0.69303E-01  3344   0.497E+00
DAV:   5    -0.306517061212E+02   -0.21165E-03   -0.21158E-03  3488   0.216E-01    0.172E+01
DAV:   6    -0.311227560735E+02   -0.47105E+00   -0.64413E+01  3632   0.715E+01    0.255E+01
DAV:   7    -0.332319458278E+02   -0.21092E+01   -0.11366E+02  3728   0.937E+01    0.274E+01
DAV:   8    -0.330920372523E+02    0.13991E+00   -0.11742E+02  4016   0.535E+01    0.316E+01
DAV:   9    -0.284151471148E+02    0.46769E+01   -0.53468E+01  3840   0.304E+01    0.250E+01
DAV:  10    -0.265568301243E+02    0.18583E+01   -0.15047E+01  3440   0.180E+01    0.154E+01
DAV:  11    -0.263513189741E+02    0.20551E+00   -0.61962E+00  3456   0.160E+01    0.122E+01
DAV:  12    -0.262377401339E+02    0.11358E+00   -0.73477E-01  3264   0.905E+00    0.101E+01
DAV:  13    -0.257767539655E+02    0.46099E+00   -0.18772E+00  3040   0.134E+01    0.407E+00
DAV:  14    -0.257932987085E+02   -0.16545E-01   -0.11188E+00  4032   0.705E+00    0.713E+00
DAV:  15    -0.259020472977E+02   -0.10875E+00   -0.93896E-02  3136   0.290E+00    0.621E+00
DAV:  16    -0.259903029573E+02   -0.88256E-01   -0.18906E-01  3264   0.411E+00    0.351E+00
DAV:  17    -0.260493477655E+02   -0.59045E-01   -0.16537E-01  3584   0.340E+00    0.151E+00
DAV:  18    -0.260608368955E+02   -0.11489E-01   -0.43641E-02  3472   0.132E+00    0.154E+00
DAV:  19    -0.260637016093E+02   -0.28647E-02   -0.28522E-02  3728   0.114E+00    0.170E+00
DAV:  20    -0.261005036255E+02   -0.36802E-01   -0.89864E-02  3392   0.278E+00    0.229E+00
DAV:  21    -0.261072668235E+02   -0.67632E-02   -0.53129E-02  3312   0.189E+00    0.108E+00
DAV:  22    -0.261087612410E+02   -0.14944E-02   -0.54251E-02  3840   0.156E+00    0.578E-01
DAV:  23    -0.261074184368E+02    0.13428E-02   -0.26353E-03  3216   0.360E-01    0.462E-01
DAV:  24    -0.261068289539E+02    0.58948E-03   -0.50333E-04  3184   0.158E-01    0.463E-01
DAV:  25    -0.261067047803E+02    0.12417E-03   -0.15501E-03  2864   0.387E-01    0.176E-01
DAV:  26    -0.261070597148E+02   -0.35493E-03   -0.37342E-04  2960   0.145E-01    0.940E-02
DAV:  27    -0.261075973255E+02   -0.53761E-03   -0.10994E-04  2672   0.985E-02    0.539E-02
DAV:  28    -0.261080003469E+02   -0.40302E-03   -0.35578E-05  2784   0.479E-02    0.319E-02
DAV:  29    -0.261082368084E+02   -0.23646E-03   -0.44008E-05  2784   0.486E-02    0.173E-02
DAV:  30    -0.261085429030E+02   -0.30609E-03   -0.22825E-05  2688   0.211E-02    0.123E-02
DAV:  31    -0.261086908925E+02   -0.14799E-03   -0.13054E-05  2752   0.203E-02    0.122E-02
DAV:  32    -0.261087374605E+02   -0.46568E-04   -0.34533E-06  2640   0.101E-02
   1 F= -.26108737E+02 E0= -.26108737E+02  d E =0.000000E+00  mag=     3.1168
