 vasp.5.4.4.18Apr17-6-g9f103f2a35 (build Apr 07 2018 02:38:49) complex          
  
 executed on             LinuxIFC date 2018.12.20  16:51:46
 running on   16 total cores
 distrk:  each k-point on   16 cores,    1 groups
 distr:  one band on NCORES_PER_BAND=   1 cores,   16 groups


--------------------------------------------------------------------------------------------------------


 INCAR:
 POTCAR:   PAW_PBE Ni 06Sep2000                   

 ----------------------------------------------------------------------------- 
|                                                                             |
|           W    W    AA    RRRRR   N    N  II  N    N   GGGG   !!!           |
|           W    W   A  A   R    R  NN   N  II  NN   N  G    G  !!!           |
|           W    W  A    A  R    R  N N  N  II  N N  N  G       !!!           |
|           W WW W  AAAAAA  RRRRR   N  N N  II  N  N N  G  GGG   !            |
|           WW  WW  A    A  R   R   N   NN  II  N   NN  G    G                |
|           W    W  A    A  R    R  N    N  II  N    N   GGGG   !!!           |
|                                                                             |
|      For optimal performance we recommend to set                            |
|        NCORE= 4 - approx SQRT( number of cores)                             |
|      NCORE specifies how many cores store one orbital (NPAR=cpu/NCORE).     |
|      This setting can  greatly improve the performance of VASP for DFT.     |
|      The default,   NCORE=1            might be grossly inefficient         |
|      on modern multi-core architectures or massively parallel machines.     |
|      Do your own testing !!!!                                               |
|      Unfortunately you need to use the default for GW and RPA calculations. |
|      (for HF NCORE is supported but not extensively tested yet)             |
|                                                                             |
 ----------------------------------------------------------------------------- 

 POTCAR:   PAW_PBE Ni 06Sep2000                   
   VRHFIN =Ni:                                                                  
   LEXCH  = PE                                                                  
   EATOM  =  1077.9025 eV,   79.2236 Ry                                         
                                                                                
   TITEL  = PAW_PBE Ni 06Sep2000                                                
   LULTRA =        F    use ultrasoft PP ?                                      
   IUNSCR =        1    unscreen: 0-lin 1-nonlin 2-no                           
   RPACOR =    2.000    partial core radius                                     
   POMASS =   58.690; ZVAL   =   10.000    mass and valenz                      
   RCORE  =    2.300    outmost cutoff radius                                   
   RWIGS  =    2.430; RWIGS  =    1.286    wigner-seitz radius (au A)           
   ENMAX  =  269.533; ENMIN  =  202.150 eV                                      
   RCLOC  =    1.681    cutoff for local pot                                    
   LCOR   =        T    correct aug charges                                     
   LPAW   =        T    paw PP                                                  
   EAUG   =  544.565                                                            
   DEXC   =    -.009                                                            
   RMAX   =    2.808    core radius for proj-oper                               
   RAUG   =    1.300    factor for augmentation sphere                          
   RDEP   =    2.390    radius for radial grids                                 
   QCUT   =   -4.451; QGAM   =    8.902    optimization parameters              
                                                                                
   Description                                                                  
     l     E      TYP  RCUT    TYP  RCUT                                        
     2   .000     23  2.300                                                     
     2   .000     23  2.300                                                     
     0   .000     23  2.300                                                     
     0   .000     23  2.300                                                     
     1  -.200     23  2.300                                                     
     1   .000     23  2.300                                                     
     3   .000      7   .000                                                     
  local pseudopotential read in
  partial core-charges read in
  atomic valenz-charges read in
  non local Contribution for L=           2  read in
    real space projection operators read in
  non local Contribution for L=           2  read in
    real space projection operators read in
  non local Contribution for L=           0  read in
    real space projection operators read in
  non local Contribution for L=           0  read in
    real space projection operators read in
  non local Contribution for L=           1  read in
    real space projection operators read in
  non local Contribution for L=           1  read in
    real space projection operators read in
    PAW grid and wavefunctions read in
 
   number of l-projection  operators is LMAX  =           6
   number of lm-projection operators is LMMAX =          18
 
 PAW_PBE Ni 06Sep2000                   :
 energy of atom  1       EATOM=-1077.9025
 kinetic energy error for atom=    0.0378 (will be added to EATOM!!)
 
 
 POSCAR: fcc (100) surface                       
  positions in direct lattice
  velocities in cartesian coordinates
  No initial velocities read in
 exchange correlation table for  LEXCH =        8
   RHO(1)=    0.500       N(1)  =     2000
   RHO(2)=  100.500       N(2)  =     4000

 VTST: version 3.1, (03/28/14)

 CHAIN: initializing optimizer
 
 OPT: Using VASP Dynamics algorithm
 CHAIN: Read ICHAIN            0
 
 POSCAR: fcc (100) surface                       
  positions in direct lattice
  velocities in cartesian coordinates
  No initial velocities read in
 


--------------------------------------------------------------------------------------------------------


 ion  position               nearest neighbor table
   1  0.000  0.000  0.000-   2 2.50   2 2.50   2 2.50   2 2.50
   2  0.500  0.500  0.100-   1 2.50   3 2.50   1 2.50   3 2.50   1 2.50   3 2.50   1 2.50   3 2.50

   3  0.000  0.000  0.200-   2 2.50   2 2.50   2 2.50   2 2.50   4 2.50   4 2.50   4 2.50   4 2.50

   4  0.500  0.500  0.300-   5 2.44   5 2.44   5 2.44   5 2.44   3 2.50   3 2.50   3 2.50   3 2.50

   5  0.000  0.000  0.396-   4 2.44   4 2.44   4 2.44   4 2.44
 
  LATTYP: Found a simple tetragonal cell.
 ALAT       =     2.4960869376
 C/A-ratio  =     7.0710678119
  
  Lattice vectors:
  
 A1 = (   1.7650000000,   1.7650000000,   0.0000000000)
 A2 = (  -1.7650000000,   1.7650000000,   0.0000000000)
 A3 = (   0.0000000000,   0.0000000000,  17.6500000000)


Analysis of symmetry for initial positions (statically):
=====================================================================
 Subroutine PRICEL returns:
 Original cell was already a primitive cell.
 

 Routine SETGRP: Setting up the symmetry group for a 
 simple tetragonal supercell.


 Subroutine GETGRP returns: Found  8 space group operations
 (whereof  8 operations were pure point group operations)
 out of a pool of 16 trial point group operations.


The static configuration has the point symmetry C_4v.


Analysis of symmetry for dynamics (positions and initial velocities):
=====================================================================
 Subroutine PRICEL returns:
 Original cell was already a primitive cell.
 

 Routine SETGRP: Setting up the symmetry group for a 
 simple tetragonal supercell.


 Subroutine GETGRP returns: Found  8 space group operations
 (whereof  8 operations were pure point group operations)
 out of a pool of 16 trial point group operations.


The dynamic configuration has the point symmetry C_4v.


Analysis of constrained symmetry for selective dynamics:
=====================================================================
 Subroutine PRICEL returns:
 Original cell was already a primitive cell.
 

 Routine SETGRP: Setting up the symmetry group for a 
 simple tetragonal supercell.


 Subroutine GETGRP returns: Found  8 space group operations
 (whereof  8 operations were pure point group operations)
 out of a pool of 16 trial point group operations.


The constrained configuration has the point symmetry C_4v.


Analysis of structural, dynamic, and magnetic symmetry:
=====================================================================
 Subroutine PRICEL returns:
 Original cell was already a primitive cell.
 

 Routine SETGRP: Setting up the symmetry group for a 
 simple tetragonal supercell.


 Subroutine GETGRP returns: Found  8 space group operations
 (whereof  8 operations were pure point group operations)
 out of a pool of 16 trial point group operations.


The magnetic configuration has the point symmetry C_4v.


 Subroutine INISYM returns: Found  8 space group operations
 (whereof  8 operations are pure point group operations),
 and found     1 'primitive' translations

 
 
 KPOINTS: K-POINTS                                

Automatic generation of k-mesh.
Space group operators:
 irot       det(A)        alpha          n_x          n_y          n_z        tau_x        tau_y        tau_z
    1     1.000000     0.000000     1.000000     0.000000     0.000000     0.000000     0.000000     0.000000
    2     1.000000    90.000000     0.000000     0.000000    -1.000000     0.000000     0.000000     0.000000
    3     1.000000   180.000000     0.000000     0.000000     1.000000     0.000000     0.000000     0.000000
    4     1.000000    90.000000     0.000000     0.000000     1.000000     0.000000     0.000000     0.000000
    5    -1.000000   180.000000     0.707107    -0.707107     0.000000     0.000000     0.000000     0.000000
    6    -1.000000   180.000000     0.000000     1.000000     0.000000     0.000000     0.000000     0.000000
    7    -1.000000   180.000000     0.707107     0.707107     0.000000     0.000000     0.000000     0.000000
    8    -1.000000   180.000000     1.000000     0.000000     0.000000     0.000000     0.000000     0.000000
 
 Subroutine IBZKPT returns following result:
 ===========================================
 
 Found     15 irreducible k-points:
 
 Following reciprocal coordinates:
            Coordinates               Weight
  0.000000  0.000000  0.000000      1.000000
  0.111111  0.000000  0.000000      4.000000
  0.222222  0.000000  0.000000      4.000000
  0.333333  0.000000  0.000000      4.000000
  0.444444  0.000000  0.000000      4.000000
  0.111111  0.111111  0.000000      4.000000
  0.222222  0.111111  0.000000      8.000000
  0.333333  0.111111  0.000000      8.000000
  0.444444  0.111111  0.000000      8.000000
  0.222222  0.222222  0.000000      4.000000
  0.333333  0.222222  0.000000      8.000000
  0.444444  0.222222  0.000000      8.000000
  0.333333  0.333333  0.000000      4.000000
  0.444444  0.333333  0.000000      8.000000
  0.444444  0.444444  0.000000      4.000000
 
 Following cartesian coordinates:
            Coordinates               Weight
  0.000000  0.000000  0.000000      1.000000
  0.111111  0.111111  0.000000      4.000000
  0.222222  0.222222  0.000000      4.000000
  0.333333  0.333333  0.000000      4.000000
  0.444444  0.444444  0.000000      4.000000
  0.000000  0.222222  0.000000      4.000000
  0.111111  0.333333  0.000000      8.000000
  0.222222  0.444444  0.000000      8.000000
  0.333333  0.555556  0.000000      8.000000
  0.000000  0.444444  0.000000      4.000000
  0.111111  0.555556  0.000000      8.000000
  0.222222  0.666667  0.000000      8.000000
  0.000000  0.666667  0.000000      4.000000
  0.111111  0.777778  0.000000      8.000000
  0.000000  0.888889  0.000000      4.000000
 
 TETIRR: Found    111 inequivalent tetrahedra from      486


--------------------------------------------------------------------------------------------------------




 Dimension of arrays:
   k-points           NKPTS =     15   k-points in BZ     NKDIM =     15   number of bands    NBANDS=     48
   number of dos      NEDOS =    301   number of ions     NIONS =      5
   non local maximal  LDIM  =      6   non local SUM 2l+1 LMDIM =     18
   total plane-waves  NPLWV =   7200
   max r-space proj   IRMAX =      1   max aug-charges    IRDMAX=   2322
   dimension x,y,z NGX =    10 NGY =   10 NGZ =   72
   dimension x,y,z NGXF=    20 NGYF=   20 NGZF=  144
   support grid    NGXF=    20 NGYF=   20 NGZF=  144
   ions per type =               5
   NGX,Y,Z   is equivalent  to a cutoff of   6.66,  6.66,  6.78 a.u.
   NGXF,Y,Z  is equivalent  to a cutoff of  13.32, 13.32, 13.56 a.u.

 SYSTEM =  clean (100) Ni surface                  
 POSCAR =  fcc (100) surface                       

 Startparameter for this run:
   NWRITE =      2    write-flag & timer
   PREC   = normal    normal or accurate (medium, high low for compatibility)
   ISTART =      0    job   : 0-new  1-cont  2-samecut
   ICHARG =      2    charge: 1-file 2-atom 10-const
   ISPIN  =      2    spin polarized calculation?
   LNONCOLLINEAR =      F non collinear calculations
   LSORBIT =      F    spin-orbit coupling
   INIWAV =      1    electr: 0-lowe 1-rand  2-diag
   LASPH  =      F    aspherical Exc in radial PAW
   METAGGA=      F    non-selfconsistent MetaGGA calc.

 Electronic Relaxation 1
   ENCUT  =  270.0 eV  19.84 Ry    4.45 a.u.   3.34  3.34 23.65*2*pi/ulx,y,z
   ENINI  =  270.0     initial cutoff
   ENAUG  =  544.6 eV  augmentation charge cutoff
   NELM   =     60;   NELMIN=  2; NELMDL= -5     # of ELM steps 
   EDIFF  = 0.1E-03   stopping-criterion for ELM
   LREAL  =      F    real-space projection
   NLSPLINE    = F    spline interpolate recip. space projectors
   LCOMPAT=      F    compatible to vasp.4.4
   GGA_COMPAT  = T    GGA compatible to vasp.4.4-vasp.4.6
   LMAXPAW     = -100 max onsite density
   LMAXMIX     =    2 max onsite mixed and CHGCAR
   VOSKOWN=      0    Vosko Wilk Nusair interpolation
   ROPT   =    0.00000
 Ionic relaxation
   EDIFFG = 0.1E-02   stopping-criterion for IOM
   NSW    =      0    number of steps for IOM
   NBLOCK =      1;   KBLOCK =      1    inner block; outer block 
   IBRION =     -1    ionic relax: 0-MD 1-quasi-New 2-CG
   NFREE  =      0    steps in history (QN), initial steepest desc. (CG)
   ISIF   =      2    stress and relaxation
   IWAVPR =     10    prediction:  0-non 1-charg 2-wave 3-comb
   ISYM   =      2    0-nonsym 1-usesym 2-fastsym
   LCORR  =      T    Harris-Foulkes like correction to forces

   POTIM  = 0.5000    time-step for ionic-motion
   TEIN   =    0.0    initial temperature
   TEBEG  =    0.0;   TEEND  =   0.0 temperature during run
   SMASS  =  -3.00    Nose mass-parameter (am)
   estimated Nose-frequenzy (Omega)   =  0.10E-29 period in steps =****** mass=  -0.142E-27a.u.
   SCALEE = 1.0000    scale energy and forces
   NPACO  =    256;   APACO  = 16.0  distance and # of slots for P.C.
   PSTRESS=    0.0 pullay stress

  Mass of Ions in am
   POMASS =  58.69
  Ionic Valenz
   ZVAL   =  10.00
  Atomic Wigner-Seitz radii
   RWIGS  =  -1.00
  virtual crystal weights 
   VCA    =   1.00
   NELECT =      50.0000    total number of electrons
   NUPDOWN=      -1.0000    fix difference up-down

 DOS related values:
   EMIN   =  10.00;   EMAX   =-10.00  energy-range for DOS
   EFERMI =   0.00
   ISMEAR =    -5;   SIGMA  =   0.20  broadening in eV -4-tet -1-fermi 0-gaus

 Electronic relaxation 2 (details)
   IALGO  =     38    algorithm
   LDIAG  =      T    sub-space diagonalisation (order eigenvalues)
   LSUBROT=      F    optimize rotation matrix (better conditioning)
   TURBO    =      0    0=normal 1=particle mesh
   IRESTART =      0    0=no restart 2=restart with 2 vectors
   NREBOOT  =      0    no. of reboots
   NMIN     =      0    reboot dimension
   EREF     =   0.00    reference energy to select bands
   IMIX   =      4    mixing-type and parameters
     AMIX     =   0.40;   BMIX     =  1.00
     AMIX_MAG =   1.60;   BMIX_MAG =  1.00
     AMIN     =   0.10
     WC   =   100.;   INIMIX=   1;  MIXPRE=   1;  MAXMIX= -45

 Intra band minimization:
   WEIMIN = 0.0000     energy-eigenvalue tresh-hold
   EBREAK =  0.52E-06  absolut break condition
   DEPER  =   0.30     relativ break condition  

   TIME   =   0.40     timestep for ELM

  volume/ion in A,a.u.               =      21.99       148.42
  Fermi-wavevector in a.u.,A,eV,Ry     =   1.258858  2.378897 21.561476  1.584724
  Thomas-Fermi vector in A             =   2.392447
 
 Write flags
   LWAVE        =      T    write WAVECAR
   LDOWNSAMPLE  =      F    k-point downsampling of WAVECAR
   LCHARG       =      T    write CHGCAR
   LVTOT        =      F    write LOCPOT, total local potential
   LVHAR        =      F    write LOCPOT, Hartree potential only
   LELF         =      F    write electronic localiz. function (ELF)
   LORBIT       =     10    0 simple, 1 ext, 2 COOP (PROOUT), +10 PAW based schemes


 Dipole corrections
   LMONO  =      F    monopole corrections only (constant potential shift)
   LDIPOL =      F    correct potential (dipole corrections)
   IDIPOL =      0    1-x, 2-y, 3-z, 4-all directions 
   EPSILON=  1.0000000 bulk dielectric constant

 Exchange correlation treatment:
   GGA     =    --    GGA type
   LEXCH   =     8    internal setting for exchange type
   VOSKOWN=      0    Vosko Wilk Nusair interpolation
   LHFCALC =     F    Hartree Fock is set to
   LHFONE  =     F    Hartree Fock one center treatment
   AEXX    =    0.0000 exact exchange contribution

 Linear response parameters
   LEPSILON=     F    determine dielectric tensor
   LRPA    =     F    only Hartree local field effects (RPA)
   LNABLA  =     F    use nabla operator in PAW spheres
   LVEL    =     F    velocity operator in full k-point grid
   LINTERFAST=   F  fast interpolation
   KINTER  =     0    interpolate to denser k-point grid
   CSHIFT  =0.1000    complex shift for real part using Kramers Kronig
   OMEGAMAX=  -1.0    maximum frequency
   DEG_THRESHOLD= 0.2000000E-02 threshold for treating states as degnerate
   RTIME   =   -0.100 relaxation time in fs
  (WPLASMAI=    0.000 imaginary part of plasma frequency in eV, 0.658/RTIME)
   DFIELD  = 0.0000000 0.0000000 0.0000000 field for delta impulse in time
 
 Orbital magnetization related:
   ORBITALMAG=     F  switch on orbital magnetization
   LCHIMAG   =     F  perturbation theory with respect to B field
   DQ        =  0.001000  dq finite difference perturbation B field
   LLRAUG    =     F  two centre corrections for induced B field



--------------------------------------------------------------------------------------------------------


 Static calculation
 charge density and potential will be updated during run
 spin polarized calculation
 Variant of blocked Davidson
 Davidson routine will perform the subspace rotation
 perform sub-space diagonalisation
    after iterative eigenvector-optimisation
 modified Broyden-mixing scheme, WC =      100.0
 initial mixing is a Kerker type mixing with AMIX =  0.4000 and BMIX =      1.0000
 Hartree-type preconditioning will be used
 using additional bands           23
 reciprocal scheme for non local part
 use partial core corrections
 calculate Harris-corrections to forces 
   (improved forces if not selfconsistent)
 use gradient corrections 
 use of overlap-Matrix (Vanderbilt PP)
 Fermi weights with tetrahedron method with Bloechl corrections


--------------------------------------------------------------------------------------------------------


  energy-cutoff  :      270.00
  volume of cell :      109.97
      direct lattice vectors                 reciprocal lattice vectors
     1.765000000  1.765000000  0.000000000     0.283286119  0.283286119  0.000000000
    -1.765000000  1.765000000  0.000000000    -0.283286119  0.283286119  0.000000000
     0.000000000  0.000000000 17.650000000     0.000000000  0.000000000  0.056657224

  length of vectors
     2.496086938  2.496086938 17.650000000     0.400627071  0.400627071  0.056657224


 
 k-points in units of 2pi/SCALE and weight: K-POINTS                                
   0.00000000  0.00000000  0.00000000       0.012
   0.11111111  0.11111111  0.00000000       0.049
   0.22222222  0.22222222  0.00000000       0.049
   0.33333333  0.33333333  0.00000000       0.049
   0.44444444  0.44444444  0.00000000       0.049
   0.00000000  0.22222222  0.00000000       0.049
   0.11111111  0.33333333  0.00000000       0.099
   0.22222222  0.44444444  0.00000000       0.099
   0.33333333  0.55555556  0.00000000       0.099
   0.00000000  0.44444444  0.00000000       0.049
   0.11111111  0.55555556  0.00000000       0.099
   0.22222222  0.66666667  0.00000000       0.099
   0.00000000  0.66666667  0.00000000       0.049
   0.11111111  0.77777778  0.00000000       0.099
   0.00000000  0.88888889  0.00000000       0.049
 
 k-points in reciprocal lattice and weights: K-POINTS                                
   0.00000000  0.00000000  0.00000000       0.012
   0.11111111  0.00000000  0.00000000       0.049
   0.22222222  0.00000000  0.00000000       0.049
   0.33333333  0.00000000  0.00000000       0.049
   0.44444444  0.00000000  0.00000000       0.049
   0.11111111  0.11111111  0.00000000       0.049
   0.22222222  0.11111111  0.00000000       0.099
   0.33333333  0.11111111  0.00000000       0.099
   0.44444444  0.11111111  0.00000000       0.099
   0.22222222  0.22222222  0.00000000       0.049
   0.33333333  0.22222222  0.00000000       0.099
   0.44444444  0.22222222  0.00000000       0.099
   0.33333333  0.33333333  0.00000000       0.049
   0.44444444  0.33333333  0.00000000       0.099
   0.44444444  0.44444444  0.00000000       0.049
 
 position of ions in fractional coordinates (direct lattice) 
   0.00000000  0.00000000  0.00000000
   0.50000000  0.50000000  0.10000000
   0.00000000  0.00000000  0.20000000
   0.50000000  0.50000000  0.30042453
   0.00000000  0.00000000  0.39594145
 
 position of ions in cartesian coordinates  (Angst):
   0.00000000  0.00000000  0.00000000
   0.00000000  1.76500000  1.76500000
   0.00000000  0.00000000  3.53000000
   0.00000000  1.76500000  5.30249290
   0.00000000  0.00000000  6.98836655
 


--------------------------------------------------------------------------------------------------------


 k-point  1 :   0.0000 0.0000 0.0000  plane waves:    1131
 k-point  2 :   0.1111 0.0000 0.0000  plane waves:    1131
 k-point  3 :   0.2222 0.0000 0.0000  plane waves:    1109
 k-point  4 :   0.3333 0.0000 0.0000  plane waves:    1109
 k-point  5 :   0.4444 0.0000 0.0000  plane waves:    1104
 k-point  6 :   0.1111 0.1111 0.0000  plane waves:    1121
 k-point  7 :   0.2222 0.1111 0.0000  plane waves:    1104
 k-point  8 :   0.3333 0.1111 0.0000  plane waves:    1106
 k-point  9 :   0.4444 0.1111 0.0000  plane waves:    1120
 k-point 10 :   0.2222 0.2222 0.0000  plane waves:    1113
 k-point 11 :   0.3333 0.2222 0.0000  plane waves:    1108
 k-point 12 :   0.4444 0.2222 0.0000  plane waves:    1109
 k-point 13 :   0.3333 0.3333 0.0000  plane waves:    1099
 k-point 14 :   0.4444 0.3333 0.0000  plane waves:    1088
 k-point 15 :   0.4444 0.4444 0.0000  plane waves:    1088

 maximum and minimum number of plane-waves per node :      1131     1088

 maximum number of plane-waves:      1131
 maximum index in each direction: 
   IXMAX=    3   IYMAX=    3   IZMAX=   23
   IXMIN=   -3   IYMIN=   -3   IZMIN=  -23


 serial   3D FFT for wavefunctions
 parallel 3D FFT for charge:
    minimum data exchange during FFTs selected (reduces bandwidth)


 total amount of memory used by VASP MPI-rank0    35677. kBytes
=======================================================================

   base      :      30000. kBytes
   nonl-proj :       2544. kBytes
   fftplans  :        206. kBytes
   grid      :        998. kBytes
   one-center:        155. kBytes
   wavefun   :       1774. kBytes
 
     INWAV:  cpu time    0.0000: real time    0.0000
 Broyden mixing: mesh for mixing (old mesh)
   NGX =  7   NGY =  7   NGZ = 47
  (NGX  = 20   NGY  = 20   NGZ  =144)
  gives a total of   2303 points

 initial charge density was supplied:
 charge density of overlapping atoms calculated
 number of electron      50.0000000 magnetization       5.0000000
 keeping initial charge density in first step


--------------------------------------------------------------------------------------------------------


 Maximum index for augmentation-charges          339 (set IRDMAX)


--------------------------------------------------------------------------------------------------------


 First call to EWALD:  gamma=   0.370
 Maximum number of real-space cells 5x 5x 1
 Maximum number of reciprocal cells 2x 2x 9

    FEWALD:  cpu time    0.0020: real time    0.0020


--------------------------------------- Iteration      1(   1)  ---------------------------------------


    POTLOK:  cpu time    0.0140: real time    0.0155
    SETDIJ:  cpu time    0.0130: real time    0.0131
     EDDAV:  cpu time    0.6239: real time    0.6241
 BZINTS: Fermi energy:  7.703248; 50.000000 electrons
         Band energy: 177.313040;  BLOECHL correction: -0.071173
       DOS:  cpu time    0.0210: real time    0.0211
    --------------------------------------------
      LOOP:  cpu time    0.6719: real time    0.6738

 eigenvalue-minimisations  :  2880
 total energy-change (2. order) : 0.2236858E+03  (-0.1566440E+04)
 number of electron      50.0000000 magnetization       5.0000000
 augmentation part       50.0000000 magnetization       5.0000000

 Free energy of the ion-electron system (eV)
  ---------------------------------------------------
  alpha Z        PSCENC =       229.19704166
  Ewald energy   TEWEN  =      9425.48118467
  -Hartree energ DENC   =    -14820.59184117
  -exchange      EXHF   =         0.00000000
  -V(xc)+E(xc)   XCENC  =       157.00662078
  PAW double counting   =      4352.56531539    -4686.60891765
  entropy T*S    EENTRO =         0.00000000
  eigenvalues    EBANDS =       177.31304003
  atomic energy  EATOM  =      5389.32339188
  Solvation  Ediel_sol  =         0.00000000
  ---------------------------------------------------
  free energy    TOTEN  =       223.68583559 eV

  energy without entropy =      223.68583559  energy(sigma->0) =      223.68583559


--------------------------------------------------------------------------------------------------------




--------------------------------------- Iteration      1(   2)  ---------------------------------------


     EDDAV:  cpu time    0.6819: real time    0.6835
 BZINTS: Fermi energy:  1.282564; 50.000000 electrons
         Band energy: -65.038632;  BLOECHL correction: -0.085193
       DOS:  cpu time    0.0220: real time    0.0215
    --------------------------------------------
      LOOP:  cpu time    0.7039: real time    0.7050

 eigenvalue-minimisations  :  3184
 total energy-change (2. order) :-0.2423517E+03  (-0.2291466E+03)
 number of electron      50.0000000 magnetization       5.0000000
 augmentation part       50.0000000 magnetization       5.0000000

 Free energy of the ion-electron system (eV)
  ---------------------------------------------------
  alpha Z        PSCENC =       229.19704166
  Ewald energy   TEWEN  =      9425.48118467
  -Hartree energ DENC   =    -14820.59184117
  -exchange      EXHF   =         0.00000000
  -V(xc)+E(xc)   XCENC  =       157.00662078
  PAW double counting   =      4352.56531539    -4686.60891765
  entropy T*S    EENTRO =         0.00000000
  eigenvalues    EBANDS =       -65.03863155
  atomic energy  EATOM  =      5389.32339188
  Solvation  Ediel_sol  =         0.00000000
  ---------------------------------------------------
  free energy    TOTEN  =       -18.66583599 eV

  energy without entropy =      -18.66583599  energy(sigma->0) =      -18.66583599


--------------------------------------------------------------------------------------------------------




--------------------------------------- Iteration      1(   3)  ---------------------------------------


     EDDAV:  cpu time    0.7629: real time    0.7634
 BZINTS: Fermi energy:  1.034366; 50.000000 electrons
         Band energy: -76.954959;  BLOECHL correction: -0.095556
       DOS:  cpu time    0.0220: real time    0.0214
    --------------------------------------------
      LOOP:  cpu time    0.7849: real time    0.7848

 eigenvalue-minimisations  :  3472
 total energy-change (2. order) :-0.1191633E+02  (-0.1181062E+02)
 number of electron      50.0000000 magnetization       5.0000000
 augmentation part       50.0000000 magnetization       5.0000000

 Free energy of the ion-electron system (eV)
  ---------------------------------------------------
  alpha Z        PSCENC =       229.19704166
  Ewald energy   TEWEN  =      9425.48118467
  -Hartree energ DENC   =    -14820.59184117
  -exchange      EXHF   =         0.00000000
  -V(xc)+E(xc)   XCENC  =       157.00662078
  PAW double counting   =      4352.56531539    -4686.60891765
  entropy T*S    EENTRO =         0.00000000
  eigenvalues    EBANDS =       -76.95495945
  atomic energy  EATOM  =      5389.32339188
  Solvation  Ediel_sol  =         0.00000000
  ---------------------------------------------------
  free energy    TOTEN  =       -30.58216389 eV

  energy without entropy =      -30.58216389  energy(sigma->0) =      -30.58216389


--------------------------------------------------------------------------------------------------------




--------------------------------------- Iteration      1(   4)  ---------------------------------------


     EDDAV:  cpu time    0.7319: real time    0.7322
 BZINTS: Fermi energy:  1.033171; 50.000000 electrons
         Band energy: -77.024290;  BLOECHL correction: -0.095606
       DOS:  cpu time    0.0180: real time    0.0182
    --------------------------------------------
      LOOP:  cpu time    0.7499: real time    0.7504

 eigenvalue-minimisations  :  3344
 total energy-change (2. order) :-0.6933058E-01  (-0.6930288E-01)
 number of electron      50.0000000 magnetization       5.0000000
 augmentation part       50.0000000 magnetization       5.0000000

 Free energy of the ion-electron system (eV)
  ---------------------------------------------------
  alpha Z        PSCENC =       229.19704166
  Ewald energy   TEWEN  =      9425.48118467
  -Hartree energ DENC   =    -14820.59184117
  -exchange      EXHF   =         0.00000000
  -V(xc)+E(xc)   XCENC  =       157.00662078
  PAW double counting   =      4352.56531539    -4686.60891765
  entropy T*S    EENTRO =         0.00000000
  eigenvalues    EBANDS =       -77.02429003
  atomic energy  EATOM  =      5389.32339188
  Solvation  Ediel_sol  =         0.00000000
  ---------------------------------------------------
  free energy    TOTEN  =       -30.65149447 eV

  energy without entropy =      -30.65149447  energy(sigma->0) =      -30.65149447


--------------------------------------------------------------------------------------------------------




--------------------------------------- Iteration      1(   5)  ---------------------------------------


     EDDAV:  cpu time    0.7699: real time    0.7699
 BZINTS: Fermi energy:  1.033169; 50.000000 electrons
         Band energy: -77.024502;  BLOECHL correction: -0.095606
       DOS:  cpu time    0.0190: real time    0.0193
    CHARGE:  cpu time    0.0160: real time    0.0153
    MIXING:  cpu time    0.0000: real time    0.0007
    --------------------------------------------
      LOOP:  cpu time    0.8049: real time    0.8052

 eigenvalue-minimisations  :  3488
 total energy-change (2. order) :-0.2116473E-03  (-0.2115817E-03)
 number of electron      49.9998921 magnetization       4.8488709
 augmentation part       28.3551678 magnetization       4.1753173

 Broyden mixing:
  rms(total) = 0.17178E+01    rms(broyden)= 0.17167E+01
  rms(prec ) = 0.18948E+01
  weight for this iteration     100.00

 Free energy of the ion-electron system (eV)
  ---------------------------------------------------
  alpha Z        PSCENC =       229.19704166
  Ewald energy   TEWEN  =      9425.48118467
  -Hartree energ DENC   =    -14820.59184117
  -exchange      EXHF   =         0.00000000
  -V(xc)+E(xc)   XCENC  =       157.00662078
  PAW double counting   =      4352.56531539    -4686.60891765
  entropy T*S    EENTRO =         0.00000000
  eigenvalues    EBANDS =       -77.02450168
  atomic energy  EATOM  =      5389.32339188
  Solvation  Ediel_sol  =         0.00000000
  ---------------------------------------------------
  free energy    TOTEN  =       -30.65170612 eV

  energy without entropy =      -30.65170612  energy(sigma->0) =      -30.65170612


--------------------------------------------------------------------------------------------------------




--------------------------------------- Iteration      1(   6)  ---------------------------------------


    POTLOK:  cpu time    0.0110: real time    0.0109
    SETDIJ:  cpu time    0.0070: real time    0.0068
     EDDAV:  cpu time    0.8059: real time    0.8055
 BZINTS: Fermi energy: -1.174786; 50.000000 electrons
         Band energy:-185.871261;  BLOECHL correction: -0.098874
       DOS:  cpu time    0.0210: real time    0.0214
    CHARGE:  cpu time    0.0150: real time    0.0151
    MIXING:  cpu time    0.0010: real time    0.0006
    --------------------------------------------
      LOOP:  cpu time    0.8609: real time    0.8603

 eigenvalue-minimisations  :  3632
 total energy-change (2. order) :-0.4710500E+00  (-0.6441311E+01)
 number of electron      49.9998775 magnetization       4.7188833
 augmentation part       32.2417238 magnetization       4.4435563

 Broyden mixing:
  rms(total) = 0.25508E+01    rms(broyden)= 0.25503E+01
  rms(prec ) = 0.30334E+01
  weight for this iteration     100.00

 eigenvalues of (default mixing * dielectric matrix)
  average eigenvalue GAMMA=   0.2984
  0.2984

 Free energy of the ion-electron system (eV)
  ---------------------------------------------------
  alpha Z        PSCENC =       229.19704166
  Ewald energy   TEWEN  =      9425.48118467
  -Hartree energ DENC   =    -14727.17862008
  -exchange      EXHF   =         0.00000000
  -V(xc)+E(xc)   XCENC  =       151.30829947
  PAW double counting   =      4295.60210261    -4608.98489485
  entropy T*S    EENTRO =         0.00000000
  eigenvalues    EBANDS =      -185.87126144
  atomic energy  EATOM  =      5389.32339188
  Solvation  Ediel_sol  =         0.00000000
  ---------------------------------------------------
  free energy    TOTEN  =       -31.12275607 eV

  energy without entropy =      -31.12275607  energy(sigma->0) =      -31.12275607


--------------------------------------------------------------------------------------------------------




--------------------------------------- Iteration      1(   7)  ---------------------------------------


    POTLOK:  cpu time    0.0110: real time    0.0111
    SETDIJ:  cpu time    0.0070: real time    0.0068
     EDDAV:  cpu time    0.8299: real time    0.8300
 BZINTS: Fermi energy: -0.544887; 50.000000 electrons
         Band energy:-183.943159;  BLOECHL correction: -0.073911
       DOS:  cpu time    0.0220: real time    0.0220
    CHARGE:  cpu time    0.0150: real time    0.0151
    MIXING:  cpu time    0.0000: real time    0.0004
    --------------------------------------------
      LOOP:  cpu time    0.8849: real time    0.8853

 eigenvalue-minimisations  :  3728
 total energy-change (2. order) :-0.2109190E+01  (-0.1136556E+02)
 number of electron      49.9998767 magnetization       4.5834822
 augmentation part       31.4070251 magnetization       3.9650674

 Broyden mixing:
  rms(total) = 0.27391E+01    rms(broyden)= 0.27384E+01
  rms(prec ) = 0.36421E+01
  weight for this iteration     100.00

 eigenvalues of (default mixing * dielectric matrix)
  average eigenvalue GAMMA=   0.3709
  0.5719  0.1699

 Free energy of the ion-electron system (eV)
  ---------------------------------------------------
  alpha Z        PSCENC =       229.19704166
  Ewald energy   TEWEN  =      9425.48118467
  -Hartree energ DENC   =    -14723.47928607
  -exchange      EXHF   =         0.00000000
  -V(xc)+E(xc)   XCENC  =       152.10209087
  PAW double counting   =      4350.78967669    -4672.70288605
  entropy T*S    EENTRO =         0.00000000
  eigenvalues    EBANDS =      -183.94315948
  atomic energy  EATOM  =      5389.32339188
  Solvation  Ediel_sol  =         0.00000000
  ---------------------------------------------------
  free energy    TOTEN  =       -33.23194583 eV

  energy without entropy =      -33.23194583  energy(sigma->0) =      -33.23194583


--------------------------------------------------------------------------------------------------------




--------------------------------------- Iteration      1(   8)  ---------------------------------------


    POTLOK:  cpu time    0.0110: real time    0.0109
    SETDIJ:  cpu time    0.0070: real time    0.0067
     EDDAV:  cpu time    0.9039: real time    0.9043
 BZINTS: Fermi energy:  0.393352; 50.000000 electrons
         Band energy:-138.000387;  BLOECHL correction: -0.052058
       DOS:  cpu time    0.0180: real time    0.0182
    CHARGE:  cpu time    0.0150: real time    0.0150
    MIXING:  cpu time    0.0000: real time    0.0004
    --------------------------------------------
      LOOP:  cpu time    0.9559: real time    0.9554

 eigenvalue-minimisations  :  4016
 total energy-change (2. order) : 0.1399086E+00  (-0.1174225E+02)
 number of electron      49.9998799 magnetization       4.5312508
 augmentation part       30.6261094 magnetization       4.0696904

 Broyden mixing:
  rms(total) = 0.31573E+01    rms(broyden)= 0.31567E+01
  rms(prec ) = 0.46995E+01
  weight for this iteration     100.00

 eigenvalues of (default mixing * dielectric matrix)
  average eigenvalue GAMMA=   0.2780
  0.5846  0.1753  0.0740

 Free energy of the ion-electron system (eV)
  ---------------------------------------------------
  alpha Z        PSCENC =       229.19704166
  Ewald energy   TEWEN  =      9425.48118467
  -Hartree energ DENC   =    -14761.30598228
  -exchange      EXHF   =         0.00000000
  -V(xc)+E(xc)   XCENC  =       152.64279600
  PAW double counting   =      4404.92788904    -4735.35797156
  entropy T*S    EENTRO =         0.00000000
  eigenvalues    EBANDS =      -138.00038665
  atomic energy  EATOM  =      5389.32339188
  Solvation  Ediel_sol  =         0.00000000
  ---------------------------------------------------
  free energy    TOTEN  =       -33.09203725 eV

  energy without entropy =      -33.09203725  energy(sigma->0) =      -33.09203725


--------------------------------------------------------------------------------------------------------




--------------------------------------- Iteration      1(   9)  ---------------------------------------


    POTLOK:  cpu time    0.0110: real time    0.0108
    SETDIJ:  cpu time    0.0070: real time    0.0067
     EDDAV:  cpu time    0.8539: real time    0.8539
 BZINTS: Fermi energy: -0.113343; 50.000000 electrons
         Band energy:-125.994940;  BLOECHL correction: -0.068366
       DOS:  cpu time    0.0210: real time    0.0211
    CHARGE:  cpu time    0.0150: real time    0.0152
    MIXING:  cpu time    0.0010: real time    0.0005
    --------------------------------------------
      LOOP:  cpu time    0.9079: real time    0.9081

 eigenvalue-minimisations  :  3840
 total energy-change (2. order) : 0.4676890E+01  (-0.5346768E+01)
 number of electron      49.9998817 magnetization       4.4995890
 augmentation part       30.9388802 magnetization       3.9249814

 Broyden mixing:
  rms(total) = 0.25044E+01    rms(broyden)= 0.25032E+01
  rms(prec ) = 0.29941E+01
  weight for this iteration     100.00

 eigenvalues of (default mixing * dielectric matrix)
  average eigenvalue GAMMA=   0.2279
  0.5773  0.1935  0.0705  0.0705

 Free energy of the ion-electron system (eV)
  ---------------------------------------------------
  alpha Z        PSCENC =       229.19704166
  Ewald energy   TEWEN  =      9425.48118467
  -Hartree energ DENC   =    -14767.34334581
  -exchange      EXHF   =         0.00000000
  -V(xc)+E(xc)   XCENC  =       152.63263840
  PAW double counting   =      4412.95551300    -4744.66663069
  entropy T*S    EENTRO =         0.00000000
  eigenvalues    EBANDS =      -125.99494022
  atomic energy  EATOM  =      5389.32339188
  Solvation  Ediel_sol  =         0.00000000
  ---------------------------------------------------
  free energy    TOTEN  =       -28.41514711 eV

  energy without entropy =      -28.41514711  energy(sigma->0) =      -28.41514711


--------------------------------------------------------------------------------------------------------




--------------------------------------- Iteration      1(  10)  ---------------------------------------


    POTLOK:  cpu time    0.0100: real time    0.0108
    SETDIJ:  cpu time    0.0070: real time    0.0067
     EDDAV:  cpu time    0.7489: real time    0.7493
 BZINTS: Fermi energy: -0.387586; 50.000000 electrons
         Band energy:-126.054965;  BLOECHL correction: -0.094475
       DOS:  cpu time    0.0220: real time    0.0213
    CHARGE:  cpu time    0.0150: real time    0.0152
    MIXING:  cpu time    0.0000: real time    0.0004
    --------------------------------------------
      LOOP:  cpu time    0.8029: real time    0.8036

 eigenvalue-minimisations  :  3440
 total energy-change (2. order) : 0.1858317E+01  (-0.1504731E+01)
 number of electron      49.9998824 magnetization       4.4842875
 augmentation part       31.0706339 magnetization       3.8481340

 Broyden mixing:
  rms(total) = 0.15387E+01    rms(broyden)= 0.15375E+01
  rms(prec ) = 0.19986E+01
  weight for this iteration     100.00

 eigenvalues of (default mixing * dielectric matrix)
  average eigenvalue GAMMA=   0.2235
  0.5954  0.2177  0.1311  0.1311  0.0423

 Free energy of the ion-electron system (eV)
  ---------------------------------------------------
  alpha Z        PSCENC =       229.19704166
  Ewald energy   TEWEN  =      9425.48118467
  -Hartree energ DENC   =    -14764.88123319
  -exchange      EXHF   =         0.00000000
  -V(xc)+E(xc)   XCENC  =       152.59711718
  PAW double counting   =      4417.02540442    -4749.24477142
  entropy T*S    EENTRO =         0.00000000
  eigenvalues    EBANDS =      -126.05496533
  atomic energy  EATOM  =      5389.32339188
  Solvation  Ediel_sol  =         0.00000000
  ---------------------------------------------------
  free energy    TOTEN  =       -26.55683012 eV

  energy without entropy =      -26.55683012  energy(sigma->0) =      -26.55683012


--------------------------------------------------------------------------------------------------------




--------------------------------------- Iteration      1(  11)  ---------------------------------------


    POTLOK:  cpu time    0.0110: real time    0.0109
    SETDIJ:  cpu time    0.0070: real time    0.0068
     EDDAV:  cpu time    0.7499: real time    0.7504
 BZINTS: Fermi energy: -0.337609; 50.000000 electrons
         Band energy:-124.960295;  BLOECHL correction: -0.097342
       DOS:  cpu time    0.0220: real time    0.0213
    CHARGE:  cpu time    0.0150: real time    0.0151
    MIXING:  cpu time    0.0000: real time    0.0004
    --------------------------------------------
      LOOP:  cpu time    0.8049: real time    0.8050

 eigenvalue-minimisations  :  3456
 total energy-change (2. order) : 0.2055112E+00  (-0.6196225E+00)
 number of electron      49.9998794 magnetization       4.4538944
 augmentation part       31.0264659 magnetization       3.8158459

 Broyden mixing:
  rms(total) = 0.12181E+01    rms(broyden)= 0.12173E+01
  rms(prec ) = 0.14563E+01
  weight for this iteration     100.00

 eigenvalues of (default mixing * dielectric matrix)
  average eigenvalue GAMMA=   0.2357
  0.6582  0.2329  0.2329  0.1710  0.0735  0.0457

 Free energy of the ion-electron system (eV)
  ---------------------------------------------------
  alpha Z        PSCENC =       229.19704166
  Ewald energy   TEWEN  =      9425.48118467
  -Hartree energ DENC   =    -14765.28902459
  -exchange      EXHF   =         0.00000000
  -V(xc)+E(xc)   XCENC  =       152.65009784
  PAW double counting   =      4423.24622143    -4755.99993724
  entropy T*S    EENTRO =         0.00000000
  eigenvalues    EBANDS =      -124.96029463
  atomic energy  EATOM  =      5389.32339188
  Solvation  Ediel_sol  =         0.00000000
  ---------------------------------------------------
  free energy    TOTEN  =       -26.35131897 eV

  energy without entropy =      -26.35131897  energy(sigma->0) =      -26.35131897


--------------------------------------------------------------------------------------------------------




--------------------------------------- Iteration      1(  12)  ---------------------------------------


    POTLOK:  cpu time    0.0110: real time    0.0110
    SETDIJ:  cpu time    0.0070: real time    0.0067
     EDDAV:  cpu time    0.7059: real time    0.7061
 BZINTS: Fermi energy: -0.254010; 50.000000 electrons
         Band energy:-120.629909;  BLOECHL correction: -0.103775
       DOS:  cpu time    0.0210: real time    0.0213
    CHARGE:  cpu time    0.0150: real time    0.0152
    MIXING:  cpu time    0.0010: real time    0.0006
    --------------------------------------------
      LOOP:  cpu time    0.7609: real time    0.7608

 eigenvalue-minimisations  :  3264
 total energy-change (2. order) : 0.1135788E+00  (-0.7347742E-01)
 number of electron      49.9998807 magnetization       4.4047925
 augmentation part       30.9193042 magnetization       3.8485924

 Broyden mixing:
  rms(total) = 0.10057E+01    rms(broyden)= 0.10055E+01
  rms(prec ) = 0.12654E+01
  weight for this iteration     100.00

 eigenvalues of (default mixing * dielectric matrix)
  average eigenvalue GAMMA=   0.3451
  0.7205  0.6253  0.6253  0.1563  0.1221  0.1221  0.0439

 Free energy of the ion-electron system (eV)
  ---------------------------------------------------
  alpha Z        PSCENC =       229.19704166
  Ewald energy   TEWEN  =      9425.48118467
  -Hartree energ DENC   =    -14768.23302027
  -exchange      EXHF   =         0.00000000
  -V(xc)+E(xc)   XCENC  =       152.79744670
  PAW double counting   =      4441.77956041    -4775.95343594
  entropy T*S    EENTRO =         0.00000000
  eigenvalues    EBANDS =      -120.62990925
  atomic energy  EATOM  =      5389.32339188
  Solvation  Ediel_sol  =         0.00000000
  ---------------------------------------------------
  free energy    TOTEN  =       -26.23774013 eV

  energy without entropy =      -26.23774013  energy(sigma->0) =      -26.23774013


--------------------------------------------------------------------------------------------------------




--------------------------------------- Iteration      1(  13)  ---------------------------------------


    POTLOK:  cpu time    0.0110: real time    0.0110
    SETDIJ:  cpu time    0.0070: real time    0.0067
     EDDAV:  cpu time    0.6539: real time    0.6542
 BZINTS: Fermi energy: -0.153832; 50.000000 electrons
         Band energy:-116.621267;  BLOECHL correction: -0.113149
       DOS:  cpu time    0.0200: real time    0.0198
    CHARGE:  cpu time    0.0150: real time    0.0150
    MIXING:  cpu time    0.0000: real time    0.0005
    --------------------------------------------
      LOOP:  cpu time    0.7069: real time    0.7072

 eigenvalue-minimisations  :  3040
 total energy-change (2. order) : 0.4609862E+00  (-0.1877224E+00)
 number of electron      49.9998815 magnetization       4.2859575
 augmentation part       30.8759550 magnetization       3.9146737

 Broyden mixing:
  rms(total) = 0.40662E+00    rms(broyden)= 0.40611E+00
  rms(prec ) = 0.49394E+00
  weight for this iteration     100.00

 eigenvalues of (default mixing * dielectric matrix)
  average eigenvalue GAMMA=   0.4056
  0.8720  0.6878  0.6878  0.5448  0.1612  0.1238  0.1238  0.0439

 Free energy of the ion-electron system (eV)
  ---------------------------------------------------
  alpha Z        PSCENC =       229.19704166
  Ewald energy   TEWEN  =      9425.48118467
  -Hartree energ DENC   =    -14770.33069913
  -exchange      EXHF   =         0.00000000
  -V(xc)+E(xc)   XCENC  =       153.06465344
  PAW double counting   =      4474.28558904    -4810.17664873
  entropy T*S    EENTRO =         0.00000000
  eigenvalues    EBANDS =      -116.62126678
  atomic energy  EATOM  =      5389.32339188
  Solvation  Ediel_sol  =         0.00000000
  ---------------------------------------------------
  free energy    TOTEN  =       -25.77675397 eV

  energy without entropy =      -25.77675397  energy(sigma->0) =      -25.77675397


--------------------------------------------------------------------------------------------------------




--------------------------------------- Iteration      1(  14)  ---------------------------------------


    POTLOK:  cpu time    0.0110: real time    0.0109
    SETDIJ:  cpu time    0.0070: real time    0.0067
     EDDAV:  cpu time    0.9029: real time    0.9027
 BZINTS: Fermi energy: -0.060543; 50.000000 electrons
         Band energy:-111.808511;  BLOECHL correction: -0.103762
       DOS:  cpu time    0.0200: real time    0.0207
    CHARGE:  cpu time    0.0150: real time    0.0152
    MIXING:  cpu time    0.0010: real time    0.0005
    --------------------------------------------
      LOOP:  cpu time    0.9569: real time    0.9568

 eigenvalue-minimisations  :  4032
 total energy-change (2. order) :-0.1654474E-01  (-0.1118844E+00)
 number of electron      49.9998814 magnetization       4.2256329
 augmentation part       30.8335941 magnetization       3.8947236

 Broyden mixing:
  rms(total) = 0.71335E+00    rms(broyden)= 0.71285E+00
  rms(prec ) = 0.85431E+00
  weight for this iteration     100.00

 eigenvalues of (default mixing * dielectric matrix)
  average eigenvalue GAMMA=   0.3965
  0.9145  0.5917  0.5917  0.5097  0.5097  0.1582  0.1244  0.1244  0.0439

 Free energy of the ion-electron system (eV)
  ---------------------------------------------------
  alpha Z        PSCENC =       229.19704166
  Ewald energy   TEWEN  =      9425.48118467
  -Hartree energ DENC   =    -14773.10226184
  -exchange      EXHF   =         0.00000000
  -V(xc)+E(xc)   XCENC  =       153.04661587
  PAW double counting   =      4501.39725854    -4839.32801818
  entropy T*S    EENTRO =         0.00000000
  eigenvalues    EBANDS =      -111.80851131
  atomic energy  EATOM  =      5389.32339188
  Solvation  Ediel_sol  =         0.00000000
  ---------------------------------------------------
  free energy    TOTEN  =       -25.79329871 eV

  energy without entropy =      -25.79329871  energy(sigma->0) =      -25.79329871


--------------------------------------------------------------------------------------------------------




--------------------------------------- Iteration      1(  15)  ---------------------------------------


    POTLOK:  cpu time    0.0110: real time    0.0110
    SETDIJ:  cpu time    0.0070: real time    0.0068
     EDDAV:  cpu time    0.6739: real time    0.6747
 BZINTS: Fermi energy: -0.071571; 50.000000 electrons
         Band energy:-111.492931;  BLOECHL correction: -0.105037
       DOS:  cpu time    0.0220: real time    0.0213
    CHARGE:  cpu time    0.0150: real time    0.0152
    MIXING:  cpu time    0.0010: real time    0.0006
    --------------------------------------------
      LOOP:  cpu time    0.7299: real time    0.7295

 eigenvalue-minimisations  :  3136
 total energy-change (2. order) :-0.1087486E+00  (-0.9389606E-02)
 number of electron      49.9998817 magnetization       4.0814984
 augmentation part       30.8429730 magnetization       3.7212866

 Broyden mixing:
  rms(total) = 0.62057E+00    rms(broyden)= 0.62051E+00
  rms(prec ) = 0.77756E+00
  weight for this iteration     100.00

 eigenvalues of (default mixing * dielectric matrix)
  average eigenvalue GAMMA=   0.4795
  0.7223  0.7223  0.8731  0.7457  0.7457  0.5336  0.1593  0.1243  0.1243  0.0439

 Free energy of the ion-electron system (eV)
  ---------------------------------------------------
  alpha Z        PSCENC =       229.19704166
  Ewald energy   TEWEN  =      9425.48118467
  -Hartree energ DENC   =    -14772.89685663
  -exchange      EXHF   =         0.00000000
  -V(xc)+E(xc)   XCENC  =       152.85862976
  PAW double counting   =      4504.97704085    -4843.34954880
  entropy T*S    EENTRO =         0.00000000
  eigenvalues    EBANDS =      -111.49293069
  atomic energy  EATOM  =      5389.32339188
  Solvation  Ediel_sol  =         0.00000000
  ---------------------------------------------------
  free energy    TOTEN  =       -25.90204730 eV

  energy without entropy =      -25.90204730  energy(sigma->0) =      -25.90204730


--------------------------------------------------------------------------------------------------------




--------------------------------------- Iteration      1(  16)  ---------------------------------------


    POTLOK:  cpu time    0.0100: real time    0.0108
    SETDIJ:  cpu time    0.0070: real time    0.0068
     EDDAV:  cpu time    0.7039: real time    0.7034
 BZINTS: Fermi energy: -0.115459; 50.000000 electrons
         Band energy:-112.478947;  BLOECHL correction: -0.111534
       DOS:  cpu time    0.0200: real time    0.0203
    CHARGE:  cpu time    0.0150: real time    0.0151
    MIXING:  cpu time    0.0010: real time    0.0008
    --------------------------------------------
      LOOP:  cpu time    0.7569: real time    0.7572

 eigenvalue-minimisations  :  3264
 total energy-change (2. order) :-0.8825566E-01  (-0.1890639E-01)
 number of electron      49.9998820 magnetization       3.7955865
 augmentation part       30.9026883 magnetization       3.4460318

 Broyden mixing:
  rms(total) = 0.35136E+00    rms(broyden)= 0.35133E+00
  rms(prec ) = 0.45837E+00
  weight for this iteration     100.00

 eigenvalues of (default mixing * dielectric matrix)
  average eigenvalue GAMMA=   0.5901
  1.1123  1.1123  0.8347  0.8347  0.8616  0.6416  0.6416  0.1592  0.1243  0.1243
  0.0439

 Free energy of the ion-electron system (eV)
  ---------------------------------------------------
  alpha Z        PSCENC =       229.19704166
  Ewald energy   TEWEN  =      9425.48118467
  -Hartree energ DENC   =    -14771.20731125
  -exchange      EXHF   =         0.00000000
  -V(xc)+E(xc)   XCENC  =       152.60446662
  PAW double counting   =      4510.86079080    -4849.77092067
  entropy T*S    EENTRO =         0.00000000
  eigenvalues    EBANDS =      -112.47894667
  atomic energy  EATOM  =      5389.32339188
  Solvation  Ediel_sol  =         0.00000000
  ---------------------------------------------------
  free energy    TOTEN  =       -25.99030296 eV

  energy without entropy =      -25.99030296  energy(sigma->0) =      -25.99030296


--------------------------------------------------------------------------------------------------------




--------------------------------------- Iteration      1(  17)  ---------------------------------------


    POTLOK:  cpu time    0.0110: real time    0.0110
    SETDIJ:  cpu time    0.0060: real time    0.0067
     EDDAV:  cpu time    0.7799: real time    0.7801
 BZINTS: Fermi energy: -0.084131; 50.000000 electrons
         Band energy:-110.298850;  BLOECHL correction: -0.116645
       DOS:  cpu time    0.0210: real time    0.0203
    CHARGE:  cpu time    0.0150: real time    0.0152
    MIXING:  cpu time    0.0010: real time    0.0007
    --------------------------------------------
      LOOP:  cpu time    0.8339: real time    0.8339

 eigenvalue-minimisations  :  3584
 total energy-change (2. order) :-0.5904481E-01  (-0.1653706E-01)
 number of electron      49.9998819 magnetization       3.6749901
 augmentation part       30.9351769 magnetization       3.3938068

 Broyden mixing:
  rms(total) = 0.15082E+00    rms(broyden)= 0.15060E+00
  rms(prec ) = 0.18867E+00
  weight for this iteration     100.00

 eigenvalues of (default mixing * dielectric matrix)
  average eigenvalue GAMMA=   0.6610
  1.8863  0.8347  0.8347  0.9990  0.9990  0.6613  0.6613  0.6038  0.1592  0.1243
  0.1243  0.0439

 Free energy of the ion-electron system (eV)
  ---------------------------------------------------
  alpha Z        PSCENC =       229.19704166
  Ewald energy   TEWEN  =      9425.48118467
  -Hartree energ DENC   =    -14771.64989721
  -exchange      EXHF   =         0.00000000
  -V(xc)+E(xc)   XCENC  =       152.41903704
  PAW double counting   =      4533.57968941    -4874.10094567
  entropy T*S    EENTRO =         0.00000000
  eigenvalues    EBANDS =      -110.29884955
  atomic energy  EATOM  =      5389.32339188
  Solvation  Ediel_sol  =         0.00000000
  ---------------------------------------------------
  free energy    TOTEN  =       -26.04934777 eV

  energy without entropy =      -26.04934777  energy(sigma->0) =      -26.04934777


--------------------------------------------------------------------------------------------------------




--------------------------------------- Iteration      1(  18)  ---------------------------------------


    POTLOK:  cpu time    0.0100: real time    0.0108
    SETDIJ:  cpu time    0.0070: real time    0.0067
     EDDAV:  cpu time    0.7499: real time    0.7498
 BZINTS: Fermi energy: -0.066404; 50.000000 electrons
         Band energy:-108.936860;  BLOECHL correction: -0.116397
       DOS:  cpu time    0.0210: real time    0.0212
    CHARGE:  cpu time    0.0150: real time    0.0152
    MIXING:  cpu time    0.0010: real time    0.0008
    --------------------------------------------
      LOOP:  cpu time    0.8039: real time    0.8044

 eigenvalue-minimisations  :  3472
 total energy-change (2. order) :-0.1148913E-01  (-0.4364067E-02)
 number of electron      49.9998816 magnetization       3.5316075
 augmentation part       30.9479806 magnetization       3.2577661

 Broyden mixing:
  rms(total) = 0.15379E+00    rms(broyden)= 0.15373E+00
  rms(prec ) = 0.16817E+00
  weight for this iteration     100.00

 eigenvalues of (default mixing * dielectric matrix)
  average eigenvalue GAMMA=   0.7003
  2.1921  1.1369  1.1369  0.8326  0.8326  0.6520  0.6520  0.6085  0.6085  0.1592
  0.1243  0.1243  0.0439

 Free energy of the ion-electron system (eV)
  ---------------------------------------------------
  alpha Z        PSCENC =       229.19704166
  Ewald energy   TEWEN  =      9425.48118467
  -Hartree energ DENC   =    -14772.30316434
  -exchange      EXHF   =         0.00000000
  -V(xc)+E(xc)   XCENC  =       152.35276882
  PAW double counting   =      4541.55111669    -4882.72631607
  entropy T*S    EENTRO =         0.00000000
  eigenvalues    EBANDS =      -108.93686021
  atomic energy  EATOM  =      5389.32339188
  Solvation  Ediel_sol  =         0.00000000
  ---------------------------------------------------
  free energy    TOTEN  =       -26.06083690 eV

  energy without entropy =      -26.06083690  energy(sigma->0) =      -26.06083690


--------------------------------------------------------------------------------------------------------




--------------------------------------- Iteration      1(  19)  ---------------------------------------


    POTLOK:  cpu time    0.0110: real time    0.0109
    SETDIJ:  cpu time    0.0070: real time    0.0067
     EDDAV:  cpu time    0.8219: real time    0.8226
 BZINTS: Fermi energy: -0.045496; 50.000000 electrons
         Band energy:-107.318711;  BLOECHL correction: -0.115294
       DOS:  cpu time    0.0210: real time    0.0207
    CHARGE:  cpu time    0.0150: real time    0.0152
    MIXING:  cpu time    0.0010: real time    0.0008
    --------------------------------------------
      LOOP:  cpu time    0.8769: real time    0.8769

 eigenvalue-minimisations  :  3728
 total energy-change (2. order) :-0.2864714E-02  (-0.2852226E-02)
 number of electron      49.9998812 magnetization       3.1698273
 augmentation part       30.9588717 magnetization       2.8982886

 Broyden mixing:
  rms(total) = 0.17048E+00    rms(broyden)= 0.17043E+00
  rms(prec ) = 0.20333E+00
  weight for this iteration     100.00

 eigenvalues of (default mixing * dielectric matrix)
  average eigenvalue GAMMA=   0.9191
  4.4218  1.3051  1.3051  0.8300  0.8300  0.8569  0.7604  0.7604  0.7242  0.6218
  0.1592  0.1243  0.1243  0.0439

 Free energy of the ion-electron system (eV)
  ---------------------------------------------------
  alpha Z        PSCENC =       229.19704166
  Ewald energy   TEWEN  =      9425.48118467
  -Hartree energ DENC   =    -14773.44532216
  -exchange      EXHF   =         0.00000000
  -V(xc)+E(xc)   XCENC  =       152.30016660
  PAW double counting   =      4546.51077965    -4888.11223262
  entropy T*S    EENTRO =         0.00000000
  eigenvalues    EBANDS =      -107.31871129
  atomic energy  EATOM  =      5389.32339188
  Solvation  Ediel_sol  =         0.00000000
  ---------------------------------------------------
  free energy    TOTEN  =       -26.06370161 eV

  energy without entropy =      -26.06370161  energy(sigma->0) =      -26.06370161


--------------------------------------------------------------------------------------------------------




--------------------------------------- Iteration      1(  20)  ---------------------------------------


    POTLOK:  cpu time    0.0110: real time    0.0109
    SETDIJ:  cpu time    0.0070: real time    0.0067
     EDDAV:  cpu time    0.7299: real time    0.7300
 BZINTS: Fermi energy:  0.017772; 50.000000 electrons
         Band energy:-103.298710;  BLOECHL correction: -0.112082
       DOS:  cpu time    0.0200: real time    0.0203
    CHARGE:  cpu time    0.0150: real time    0.0151
    MIXING:  cpu time    0.0010: real time    0.0009
    --------------------------------------------
      LOOP:  cpu time    0.7839: real time    0.7839

 eigenvalue-minimisations  :  3392
 total energy-change (2. order) :-0.3680202E-01  (-0.8986442E-02)
 number of electron      49.9998814 magnetization       3.2440110
 augmentation part       30.9743502 magnetization       3.0343393

 Broyden mixing:
  rms(total) = 0.22880E+00    rms(broyden)= 0.22864E+00
  rms(prec ) = 0.31436E+00
  weight for this iteration     100.00

 eigenvalues of (default mixing * dielectric matrix)
  average eigenvalue GAMMA=   0.9191
  4.7230  1.2676  1.2676  0.8281  0.8281  0.8577  0.7686  0.7686  0.7072  0.7072
  0.6114  0.1592  0.1243  0.1243  0.0439

 Free energy of the ion-electron system (eV)
  ---------------------------------------------------
  alpha Z        PSCENC =       229.19704166
  Ewald energy   TEWEN  =      9425.48118467
  -Hartree energ DENC   =    -14776.87451150
  -exchange      EXHF   =         0.00000000
  -V(xc)+E(xc)   XCENC  =       152.20740944
  PAW double counting   =      4555.02089281    -4897.15720266
  entropy T*S    EENTRO =         0.00000000
  eigenvalues    EBANDS =      -103.29870992
  atomic energy  EATOM  =      5389.32339188
  Solvation  Ediel_sol  =         0.00000000
  ---------------------------------------------------
  free energy    TOTEN  =       -26.10050363 eV

  energy without entropy =      -26.10050363  energy(sigma->0) =      -26.10050363


--------------------------------------------------------------------------------------------------------




--------------------------------------- Iteration      1(  21)  ---------------------------------------


    POTLOK:  cpu time    0.0110: real time    0.0111
    SETDIJ:  cpu time    0.0070: real time    0.0067
     EDDAV:  cpu time    0.7149: real time    0.7152
 BZINTS: Fermi energy:  0.002195; 50.000000 electrons
         Band energy:-104.875870;  BLOECHL correction: -0.115505
       DOS:  cpu time    0.0200: real time    0.0202
    CHARGE:  cpu time    0.0150: real time    0.0151
    MIXING:  cpu time    0.0010: real time    0.0009
    --------------------------------------------
      LOOP:  cpu time    0.7689: real time    0.7692

 eigenvalue-minimisations  :  3312
 total energy-change (2. order) :-0.6763198E-02  (-0.5312943E-02)
 number of electron      49.9998817 magnetization       3.2526569
 augmentation part       30.9725458 magnetization       3.0705178

 Broyden mixing:
  rms(total) = 0.10802E+00    rms(broyden)= 0.10796E+00
  rms(prec ) = 0.15094E+00
  weight for this iteration     100.00

 eigenvalues of (default mixing * dielectric matrix)
  average eigenvalue GAMMA=   0.9713
  4.9264  1.4469  1.4469  0.8261  0.8261  1.1097  0.9290  0.9290  0.7022  0.7022
  0.6221  0.6221  0.1592  0.1243  0.1243  0.0439

 Free energy of the ion-electron system (eV)
  ---------------------------------------------------
  alpha Z        PSCENC =       229.19704166
  Ewald energy   TEWEN  =      9425.48118467
  -Hartree energ DENC   =    -14775.82699215
  -exchange      EXHF   =         0.00000000
  -V(xc)+E(xc)   XCENC  =       152.25009268
  PAW double counting   =      4550.03667623    -4891.69279129
  entropy T*S    EENTRO =         0.00000000
  eigenvalues    EBANDS =      -104.87587050
  atomic energy  EATOM  =      5389.32339188
  Solvation  Ediel_sol  =         0.00000000
  ---------------------------------------------------
  free energy    TOTEN  =       -26.10726682 eV

  energy without entropy =      -26.10726682  energy(sigma->0) =      -26.10726682


--------------------------------------------------------------------------------------------------------




--------------------------------------- Iteration      1(  22)  ---------------------------------------


    POTLOK:  cpu time    0.0110: real time    0.0110
    SETDIJ:  cpu time    0.0070: real time    0.0067
     EDDAV:  cpu time    0.8449: real time    0.8451
 BZINTS: Fermi energy:  0.005932; 50.000000 electrons
         Band energy:-105.071109;  BLOECHL correction: -0.117513
       DOS:  cpu time    0.0200: real time    0.0202
    CHARGE:  cpu time    0.0150: real time    0.0151
    MIXING:  cpu time    0.0010: real time    0.0009
    --------------------------------------------
      LOOP:  cpu time    0.8989: real time    0.8991

 eigenvalue-minimisations  :  3840
 total energy-change (2. order) :-0.1494417E-02  (-0.5425069E-02)
 number of electron      49.9998817 magnetization       3.2191599
 augmentation part       30.9529407 magnetization       3.0639118

 Broyden mixing:
  rms(total) = 0.57841E-01    rms(broyden)= 0.57496E-01
  rms(prec ) = 0.68662E-01
  weight for this iteration     100.00

 eigenvalues of (default mixing * dielectric matrix)
  average eigenvalue GAMMA=   0.9864
  5.3480  1.4751  1.4751  1.2042  0.8261  0.8261  0.8844  0.8844  0.7350  0.7350
  0.6621  0.6621  0.5997  0.1592  0.1243  0.1243  0.0439

 Free energy of the ion-electron system (eV)
  ---------------------------------------------------
  alpha Z        PSCENC =       229.19704166
  Ewald energy   TEWEN  =      9425.48118467
  -Hartree energ DENC   =    -14776.07143940
  -exchange      EXHF   =         0.00000000
  -V(xc)+E(xc)   XCENC  =       152.30786751
  PAW double counting   =      4545.71468320    -4886.99038163
  entropy T*S    EENTRO =         0.00000000
  eigenvalues    EBANDS =      -105.07110912
  atomic energy  EATOM  =      5389.32339188
  Solvation  Ediel_sol  =         0.00000000
  ---------------------------------------------------
  free energy    TOTEN  =       -26.10876124 eV

  energy without entropy =      -26.10876124  energy(sigma->0) =      -26.10876124


--------------------------------------------------------------------------------------------------------




--------------------------------------- Iteration      1(  23)  ---------------------------------------


    POTLOK:  cpu time    0.0110: real time    0.0109
    SETDIJ:  cpu time    0.0070: real time    0.0067
     EDDAV:  cpu time    0.6949: real time    0.6950
 BZINTS: Fermi energy:  0.004920; 50.000000 electrons
         Band energy:-105.094760;  BLOECHL correction: -0.115882
       DOS:  cpu time    0.0200: real time    0.0202
    CHARGE:  cpu time    0.0150: real time    0.0151
    MIXING:  cpu time    0.0010: real time    0.0009
    --------------------------------------------
      LOOP:  cpu time    0.7489: real time    0.7488

 eigenvalue-minimisations  :  3216
 total energy-change (2. order) : 0.1342804E-02  (-0.2635341E-03)
 number of electron      49.9998817 magnetization       3.1803630
 augmentation part       30.9542660 magnetization       3.0344305

 Broyden mixing:
  rms(total) = 0.46223E-01    rms(broyden)= 0.46170E-01
  rms(prec ) = 0.56804E-01
  weight for this iteration     100.00

 eigenvalues of (default mixing * dielectric matrix)
  average eigenvalue GAMMA=   1.0298
  5.7448  1.4718  1.4718  1.3824  0.8260  0.8260  0.9152  0.9152  0.9492  0.9492
  0.7025  0.7025  0.6142  0.6142  0.1592  0.1243  0.1243  0.0439

 Free energy of the ion-electron system (eV)
  ---------------------------------------------------
  alpha Z        PSCENC =       229.19704166
  Ewald energy   TEWEN  =      9425.48118467
  -Hartree energ DENC   =    -14776.21984674
  -exchange      EXHF   =         0.00000000
  -V(xc)+E(xc)   XCENC  =       152.31559430
  PAW double counting   =      4543.42380677    -4884.53383109
  entropy T*S    EENTRO =         0.00000000
  eigenvalues    EBANDS =      -105.09475988
  atomic energy  EATOM  =      5389.32339188
  Solvation  Ediel_sol  =         0.00000000
  ---------------------------------------------------
  free energy    TOTEN  =       -26.10741844 eV

  energy without entropy =      -26.10741844  energy(sigma->0) =      -26.10741844


--------------------------------------------------------------------------------------------------------




--------------------------------------- Iteration      1(  24)  ---------------------------------------


    POTLOK:  cpu time    0.0110: real time    0.0109
    SETDIJ:  cpu time    0.0070: real time    0.0067
     EDDAV:  cpu time    0.7029: real time    0.7029
 BZINTS: Fermi energy:  0.009755; 50.000000 electrons
         Band energy:-104.795331;  BLOECHL correction: -0.115593
       DOS:  cpu time    0.0210: real time    0.0213
    CHARGE:  cpu time    0.0150: real time    0.0152
    MIXING:  cpu time    0.0010: real time    0.0010
    --------------------------------------------
      LOOP:  cpu time    0.7579: real time    0.7580

 eigenvalue-minimisations  :  3184
 total energy-change (2. order) : 0.5894829E-03  (-0.5033300E-04)
 number of electron      49.9998817 magnetization       3.1465867
 augmentation part       30.9485496 magnetization       3.0076543

 Broyden mixing:
  rms(total) = 0.46315E-01    rms(broyden)= 0.46308E-01
  rms(prec ) = 0.57462E-01
  weight for this iteration     100.00

 eigenvalues of (default mixing * dielectric matrix)
  average eigenvalue GAMMA=   1.0704
  6.0255  2.0169  1.4598  1.4598  0.8258  0.8258  1.0717  0.9410  0.9410  0.7929
  0.7929  0.7409  0.7409  0.6368  0.6149  0.1592  0.1243  0.1243  0.0439

 Free energy of the ion-electron system (eV)
  ---------------------------------------------------
  alpha Z        PSCENC =       229.19704166
  Ewald energy   TEWEN  =      9425.48118467
  -Hartree energ DENC   =    -14776.68522971
  -exchange      EXHF   =         0.00000000
  -V(xc)+E(xc)   XCENC  =       152.32935569
  PAW double counting   =      4540.89783408    -4881.85507643
  entropy T*S    EENTRO =         0.00000000
  eigenvalues    EBANDS =      -104.79533080
  atomic energy  EATOM  =      5389.32339188
  Solvation  Ediel_sol  =         0.00000000
  ---------------------------------------------------
  free energy    TOTEN  =       -26.10682895 eV

  energy without entropy =      -26.10682895  energy(sigma->0) =      -26.10682895


--------------------------------------------------------------------------------------------------------




--------------------------------------- Iteration      1(  25)  ---------------------------------------


    POTLOK:  cpu time    0.0110: real time    0.0109
    SETDIJ:  cpu time    0.0070: real time    0.0067
     EDDAV:  cpu time    0.6379: real time    0.6386
 BZINTS: Fermi energy:  0.006577; 50.000000 electrons
         Band energy:-104.843601;  BLOECHL correction: -0.115404
       DOS:  cpu time    0.0210: real time    0.0207
    CHARGE:  cpu time    0.0150: real time    0.0152
    MIXING:  cpu time    0.0010: real time    0.0011
    --------------------------------------------
      LOOP:  cpu time    0.6929: real time    0.6932

 eigenvalue-minimisations  :  2864
 total energy-change (2. order) : 0.1241736E-03  (-0.1550089E-03)
 number of electron      49.9998817 magnetization       3.1331487
 augmentation part       30.9499802 magnetization       2.9968701

 Broyden mixing:
  rms(total) = 0.17558E-01    rms(broyden)= 0.17543E-01
  rms(prec ) = 0.21540E-01
  weight for this iteration     100.00

 eigenvalues of (default mixing * dielectric matrix)
  average eigenvalue GAMMA=   1.0855
  6.2191  2.3015  1.4601  1.4601  0.8258  0.8258  1.2064  0.9651  0.9651  0.0439
  0.1243  0.1243  0.1592  0.8465  0.8465  0.7082  0.7082  0.6219  0.6219  0.6765

 Free energy of the ion-electron system (eV)
  ---------------------------------------------------
  alpha Z        PSCENC =       229.19704166
  Ewald energy   TEWEN  =      9425.48118467
  -Hartree energ DENC   =    -14776.78234746
  -exchange      EXHF   =         0.00000000
  -V(xc)+E(xc)   XCENC  =       152.32730372
  PAW double counting   =      4538.23002099    -4879.03969941
  entropy T*S    EENTRO =         0.00000000
  eigenvalues    EBANDS =      -104.84360083
  atomic energy  EATOM  =      5389.32339188
  Solvation  Ediel_sol  =         0.00000000
  ---------------------------------------------------
  free energy    TOTEN  =       -26.10670478 eV

  energy without entropy =      -26.10670478  energy(sigma->0) =      -26.10670478


--------------------------------------------------------------------------------------------------------




--------------------------------------- Iteration      1(  26)  ---------------------------------------


    POTLOK:  cpu time    0.0110: real time    0.0108
    SETDIJ:  cpu time    0.0070: real time    0.0068
     EDDAV:  cpu time    0.6899: real time    0.6907
 BZINTS: Fermi energy:  0.005637; 50.000000 electrons
         Band energy:-104.850631;  BLOECHL correction: -0.115346
       DOS:  cpu time    0.0210: real time    0.0202
    CHARGE:  cpu time    0.0150: real time    0.0151
    MIXING:  cpu time    0.0010: real time    0.0011
    --------------------------------------------
      LOOP:  cpu time    0.7449: real time    0.7447

 eigenvalue-minimisations  :  2960
 total energy-change (2. order) :-0.3549345E-03  (-0.3734155E-04)
 number of electron      49.9998817 magnetization       3.1301706
 augmentation part       30.9505777 magnetization       2.9950013

 Broyden mixing:
  rms(total) = 0.94036E-02    rms(broyden)= 0.93921E-02
  rms(prec ) = 0.10594E-01
  weight for this iteration     100.00

 eigenvalues of (default mixing * dielectric matrix)
  average eigenvalue GAMMA=   1.0993
  6.2701  2.5370  1.4648  1.4648  0.8258  0.8258  1.0824  1.0824  0.9286  0.9286
  1.0435  0.0439  0.1243  0.1243  0.1592  0.7298  0.7298  0.7423  0.7423  0.6174
  0.6174

 Free energy of the ion-electron system (eV)
  ---------------------------------------------------
  alpha Z        PSCENC =       229.19704166
  Ewald energy   TEWEN  =      9425.48118467
  -Hartree energ DENC   =    -14776.78666263
  -exchange      EXHF   =         0.00000000
  -V(xc)+E(xc)   XCENC  =       152.32376256
  PAW double counting   =      4537.69556625    -4878.49071261
  entropy T*S    EENTRO =         0.00000000
  eigenvalues    EBANDS =      -104.85063149
  atomic energy  EATOM  =      5389.32339188
  Solvation  Ediel_sol  =         0.00000000
  ---------------------------------------------------
  free energy    TOTEN  =       -26.10705971 eV

  energy without entropy =      -26.10705971  energy(sigma->0) =      -26.10705971


--------------------------------------------------------------------------------------------------------




--------------------------------------- Iteration      1(  27)  ---------------------------------------


    POTLOK:  cpu time    0.0110: real time    0.0110
    SETDIJ:  cpu time    0.0070: real time    0.0067
     EDDAV:  cpu time    0.6179: real time    0.6188
 BZINTS: Fermi energy:  0.003537; 50.000000 electrons
         Band energy:-104.945442;  BLOECHL correction: -0.115324
       DOS:  cpu time    0.0210: real time    0.0203
    CHARGE:  cpu time    0.0150: real time    0.0151
    MIXING:  cpu time    0.0010: real time    0.0012
    --------------------------------------------
      LOOP:  cpu time    0.6729: real time    0.6731

 eigenvalue-minimisations  :  2672
 total energy-change (2. order) :-0.5376107E-03  (-0.1099418E-04)
 number of electron      49.9998817 magnetization       3.1242361
 augmentation part       30.9515303 magnetization       2.9890818

 Broyden mixing:
  rms(total) = 0.53877E-02    rms(broyden)= 0.53833E-02
  rms(prec ) = 0.62478E-02
  weight for this iteration     100.00

 eigenvalues of (default mixing * dielectric matrix)
  average eigenvalue GAMMA=   1.1272
  6.4715  2.6737  1.4658  1.4658  1.6527  0.8258  0.8258  1.0399  1.0399  0.0439
  0.1243  0.1243  0.1592  0.9139  0.9139  0.8630  0.8630  0.7284  0.7284  0.6369
  0.6193  0.6193

 Free energy of the ion-electron system (eV)
  ---------------------------------------------------
  alpha Z        PSCENC =       229.19704166
  Ewald energy   TEWEN  =      9425.48118467
  -Hartree energ DENC   =    -14776.67267586
  -exchange      EXHF   =         0.00000000
  -V(xc)+E(xc)   XCENC  =       152.32083150
  PAW double counting   =      4537.62921245    -4878.44114173
  entropy T*S    EENTRO =         0.00000000
  eigenvalues    EBANDS =      -104.94544190
  atomic energy  EATOM  =      5389.32339188
  Solvation  Ediel_sol  =         0.00000000
  ---------------------------------------------------
  free energy    TOTEN  =       -26.10759733 eV

  energy without entropy =      -26.10759733  energy(sigma->0) =      -26.10759733


--------------------------------------------------------------------------------------------------------




--------------------------------------- Iteration      1(  28)  ---------------------------------------


    POTLOK:  cpu time    0.0110: real time    0.0109
    SETDIJ:  cpu time    0.0070: real time    0.0067
     EDDAV:  cpu time    0.6469: real time    0.6478
 BZINTS: Fermi energy:  0.002247; 50.000000 electrons
         Band energy:-104.990765;  BLOECHL correction: -0.115277
       DOS:  cpu time    0.0210: real time    0.0207
    CHARGE:  cpu time    0.0150: real time    0.0152
    MIXING:  cpu time    0.0020: real time    0.0013
    --------------------------------------------
      LOOP:  cpu time    0.7029: real time    0.7025

 eigenvalue-minimisations  :  2784
 total energy-change (2. order) :-0.4030214E-03  (-0.3557807E-05)
 number of electron      49.9998817 magnetization       3.1191015
 augmentation part       30.9520531 magnetization       2.9842026

 Broyden mixing:
  rms(total) = 0.31950E-02    rms(broyden)= 0.31928E-02
  rms(prec ) = 0.38871E-02
  weight for this iteration     100.00

 eigenvalues of (default mixing * dielectric matrix)
  average eigenvalue GAMMA=   1.1267
  6.5768  2.7789  1.4605  1.4605  1.6971  0.8258  0.8258  1.0586  1.0586  0.0439
  0.1243  0.1243  0.1592  0.8757  0.8757  0.8883  0.8883  0.8339  0.7265  0.7265
  0.6791  0.6133  0.6133

 Free energy of the ion-electron system (eV)
[...]
     29       4.5889      0.00000
     30       6.0531      0.00000
     31       6.7168      0.00000
     32       7.4689      0.00000
     33       8.6516      0.00000
     34       9.5057      0.00000
     35       9.7385      0.00000
     36      10.2102      0.00000
     37      10.8711      0.00000
     38      11.6193      0.00000
     39      11.8247      0.00000
     40      11.9021      0.00000
     41      12.4945      0.00000
     42      13.2247      0.00000
     43      14.4034      0.00000
     44      14.5652      0.00000
     45      15.8358      0.00000
     46      15.9550      0.00000
     47      16.0085      0.00000
     48      16.0790      0.00000

 k-point    14 :       0.4444    0.3333    0.0000
  band No.  band energies     occupation 
      1      -3.9763      1.00000
      2      -3.6888      1.00000
      3      -3.4046      1.00000
      4      -3.2371      1.00000
      5      -3.1691      1.00000
      6      -3.0337      1.00000
      7      -3.0042      1.00000
      8      -2.7339      1.00000
      9      -2.6087      1.00000
     10      -2.3150      1.00000
     11      -1.9283      1.00000
     12      -1.4444      1.00000
     13      -1.2915      1.00000
     14      -0.6874      1.00000
     15      -0.6536      1.00000
     16      -0.4918      1.00000
     17      -0.4474      1.00000
     18      -0.3739      1.00000
     19      -0.3578      1.00000
     20      -0.2259      1.03971
     21      -0.1079      0.97737
     22       0.0498      0.35437
     23       0.0890      0.11172
     24       0.1937     -0.01308
     25       0.3364      0.00000
     26       1.5433      0.00000
     27       2.7908      0.00000
     28       3.8423      0.00000
     29       4.4105      0.00000
     30       5.0598      0.00000
     31       6.6037      0.00000
     32       7.0628      0.00000
     33       8.7988      0.00000
     34       9.2473      0.00000
     35      10.7293      0.00000
     36      10.9881      0.00000
     37      11.4241      0.00000
     38      11.8408      0.00000
     39      11.9250      0.00000
     40      12.8994      0.00000
     41      13.2131      0.00000
     42      13.2255      0.00000
     43      13.6510      0.00000
     44      14.0607      0.00000
     45      14.1365      0.00000
     46      14.4724      0.00000
     47      14.6767      0.00000
     48      15.4077      0.00000

 k-point    15 :       0.4444    0.4444    0.0000
  band No.  band energies     occupation 
      1      -4.0220      1.00000
      2      -3.9160      1.00000
      3      -3.5380      1.00000
      4      -3.3504      1.00000
      5      -3.3413      1.00000
      6      -3.1704      1.00000
      7      -2.9336      1.00000
      8      -2.8651      1.00000
      9      -2.8572      1.00000
     10      -2.1007      1.00000
     11      -2.0585      1.00000
     12      -1.0876      1.00000
     13      -1.0430      1.00000
     14      -0.5262      1.00000
     15      -0.4601      1.00000
     16      -0.1824      1.00000
     17      -0.1098      1.00000
     18      -0.0549      1.00000
     19      -0.0332      1.00000
     20       0.0425      0.48330
     21       0.1070      0.13688
     22       0.2095     -0.01007
     23       0.2643     -0.01647
     24       0.4552      0.00000
     25       0.5136      0.00000
     26       2.5077      0.00000
     27       3.7175      0.00000
     28       4.1934      0.00000
     29       5.4602      0.00000
     30       6.2344      0.00000
     31       7.7829      0.00000
     32       8.3834      0.00000
     33       9.5598      0.00000
     34      10.1698      0.00000
     35      10.3787      0.00000
     36      10.4649      0.00000
     37      10.6539      0.00000
     38      11.1817      0.00000
     39      11.3050      0.00000
     40      11.8775      0.00000
     41      12.3573      0.00000
     42      12.7974      0.00000
     43      12.9584      0.00000
     44      13.3880      0.00000
     45      13.7896      0.00000
     46      13.8568      0.00000
     47      14.4795      0.00000
     48      15.0897      0.00000


--------------------------------------------------------------------------------------------------------


 soft charge-density along one line, spin component           1
         0         1         2         3         4         5         6         7         8         9
 total charge-density along one line
 
 soft charge-density along one line, spin component           2
         0         1         2         3         4         5         6         7         8         9
 total charge-density along one line
 
 pseudopotential strength for first ion, spin component:           1
 -8.631   0.000  -0.000   0.000  -0.000   0.609  -0.000   0.000
  0.000  -8.573   0.000  -0.000   0.000  -0.000   0.584  -0.000
 -0.000   0.000  -8.435  -0.000  -0.000   0.000  -0.000   0.527
  0.000  -0.000  -0.000  -8.573   0.000  -0.000   0.000   0.000
 -0.000   0.000  -0.000   0.000  -8.603   0.000  -0.000   0.000
  0.609  -0.000   0.000  -0.000   0.000   1.057   0.000  -0.000
 -0.000   0.584  -0.000   0.000  -0.000   0.000   1.067   0.000
  0.000  -0.000   0.527   0.000   0.000  -0.000   0.000   1.091
 -0.000   0.000   0.000   0.584  -0.000   0.000  -0.000   0.000
  0.000  -0.000   0.000  -0.000   0.599  -0.000   0.000   0.000
  0.000  -0.000  -0.018  -0.000   0.000   0.000  -0.000   0.006
 -0.000   0.000   0.001   0.000  -0.000  -0.000  -0.000  -0.000
  0.000  -0.013   0.000  -0.000   0.000   0.000   0.007  -0.000
 -0.000  -0.000  -0.013   0.000   0.000  -0.000   0.000   0.006
 -0.000  -0.000   0.000  -0.013  -0.000   0.000  -0.000   0.000
 -0.000   0.009  -0.000   0.000  -0.000   0.000  -0.004   0.000
  0.000   0.000   0.011  -0.000  -0.000  -0.000  -0.000  -0.005
  0.000   0.000  -0.000   0.009   0.000   0.000  -0.000   0.000
 pseudopotential strength for first ion, spin component:           2
 -8.005   0.000   0.000   0.000  -0.000   0.343  -0.000   0.000
  0.000  -7.902   0.000  -0.000  -0.000  -0.000   0.302  -0.000
  0.000   0.000  -7.931   0.000  -0.000   0.000  -0.000   0.312
  0.000  -0.000   0.000  -7.902   0.000  -0.000   0.000  -0.000
 -0.000  -0.000  -0.000   0.000  -7.984   0.000   0.000   0.000
  0.343  -0.000   0.000  -0.000   0.000   1.170   0.000  -0.000
 -0.000   0.302  -0.000   0.000   0.000   0.000   1.187   0.000
  0.000  -0.000   0.312  -0.000   0.000  -0.000   0.000   1.184
 -0.000   0.000  -0.000   0.302  -0.000   0.000  -0.000   0.000
  0.000   0.000   0.000  -0.000   0.336  -0.000  -0.000  -0.000
  0.000  -0.000  -0.011  -0.000  -0.000   0.000  -0.000   0.004
 -0.000   0.000   0.001   0.000   0.000   0.000  -0.000  -0.000
 -0.000  -0.013   0.000  -0.000   0.000   0.000   0.007  -0.000
 -0.000  -0.000  -0.015  -0.000   0.000  -0.000   0.000   0.007
 -0.000  -0.000   0.000  -0.013  -0.000   0.000  -0.000   0.000
 -0.000   0.009  -0.000   0.000  -0.000  -0.000  -0.004   0.000
  0.000   0.000   0.011   0.000  -0.000  -0.000  -0.000  -0.005
  0.000   0.000  -0.000   0.009   0.000  -0.000  -0.000   0.000
 total augmentation occupancy for first ion, spin component:           1
  1.766  -0.000   0.000  -0.000   0.000   0.089   0.000   0.000  -0.000  -0.000   0.000   0.000   0.000   0.000   0.000   0.000
  0.000   1.747   0.000   0.000   0.000   0.000   0.028   0.000   0.000  -0.000   0.000   0.000   0.015   0.000   0.000  -0.010
  0.000   0.000   1.847   0.000   0.000   0.000  -0.000  -0.015  -0.000   0.000  -0.005   0.030   0.000   0.036   0.000   0.000
  0.000   0.000   0.000   1.747   0.000   0.000   0.000   0.000   0.028   0.000   0.000   0.000   0.000   0.000   0.015   0.000
  0.000   0.000   0.000   0.000   1.758   0.000   0.000   0.000   0.000   0.003   0.000   0.000   0.000   0.000   0.000   0.000
  0.089   0.000   0.000   0.000   0.000   0.072   0.000   0.000   0.000   0.000   0.000   0.000   0.000   0.000   0.000   0.000
  0.000   0.028  -0.000   0.000   0.000   0.000   0.060   0.000   0.000   0.000   0.000   0.000   0.055  -0.000   0.000  -0.004
  0.000  -0.000  -0.015  -0.000   0.000   0.000   0.000   0.068   0.000   0.000  -0.075   0.011  -0.000   0.043   0.000   0.000
 -0.000   0.000  -0.000   0.028   0.000   0.000   0.000   0.000   0.060  -0.000   0.000   0.000   0.000  -0.000   0.055   0.000
 -0.000  -0.000   0.000   0.000   0.003   0.000   0.000   0.000   0.000   0.072   0.000   0.000   0.000   0.000   0.000   0.000
  0.000   0.000  -0.005   0.000   0.000   0.000   0.000  -0.075   0.000   0.000   1.221  -0.288   0.000   0.112   0.000   0.000
  0.000   0.000   0.030   0.000   0.000   0.000   0.000   0.011   0.000   0.000  -0.288   0.093   0.000  -0.052   0.000   0.000
  0.000   0.015  -0.000  -0.000   0.000   0.000   0.055  -0.000   0.000   0.000   0.000   0.000   0.166   0.000   0.000  -0.011
  0.000   0.000   0.036   0.000   0.000   0.000  -0.000   0.043  -0.000   0.000   0.112  -0.052   0.000   0.102   0.000   0.000
  0.000   0.000   0.000   0.015  -0.000   0.000   0.000  -0.000   0.055   0.000   0.000   0.000   0.000   0.000   0.166   0.000
 -0.000  -0.010   0.000   0.000   0.000   0.000  -0.004   0.000   0.000   0.000   0.000   0.000  -0.011   0.000   0.000   0.001
  0.000   0.000  -0.013   0.000   0.000   0.000   0.000  -0.002   0.000   0.000  -0.018   0.007  -0.000  -0.008  -0.000   0.000
  0.000   0.000   0.000  -0.010   0.000   0.000   0.000   0.000  -0.004  -0.000   0.000   0.000   0.000   0.000  -0.011   0.000
 total augmentation occupancy for first ion, spin component:           2
  0.119  -0.000   0.000  -0.000   0.000  -0.080   0.000   0.000   0.000   0.000   0.000   0.000  -0.000   0.000  -0.000  -0.000
  0.000   0.156  -0.000   0.000   0.000   0.000  -0.078   0.000   0.000   0.000  -0.000   0.000  -0.003   0.000   0.000  -0.000
  0.000  -0.000   0.052  -0.000   0.000   0.000   0.000  -0.044   0.000   0.000   0.020   0.001   0.000  -0.011   0.000   0.000
  0.000   0.000  -0.000   0.156   0.000   0.000   0.000   0.000  -0.078   0.000  -0.000   0.000   0.000   0.000  -0.003   0.000
  0.000   0.000   0.000  -0.000   0.124   0.000  -0.000   0.000   0.000  -0.069   0.000   0.000   0.000   0.000   0.000   0.000
 -0.080   0.000   0.000   0.000   0.000   0.008   0.000   0.000   0.000   0.000   0.000   0.000  -0.000   0.000  -0.000   0.000
  0.000  -0.078   0.000   0.000  -0.000   0.000   0.007   0.000   0.000  -0.000   0.000  -0.000  -0.001   0.000   0.000   0.001
  0.000   0.000  -0.044   0.000   0.000   0.000   0.000   0.002   0.000   0.000  -0.004  -0.003  -0.000  -0.000  -0.000   0.000
  0.000   0.000   0.000  -0.078   0.000   0.000   0.000   0.000   0.007   0.000   0.000  -0.000   0.000   0.000  -0.001   0.000
  0.000   0.000   0.000   0.000  -0.069   0.000  -0.000   0.000   0.000   0.006   0.000   0.000   0.000   0.000  -0.000   0.000
  0.000   0.000   0.020   0.000   0.000   0.000   0.000  -0.004  -0.000   0.000   0.003   0.033  -0.000  -0.003  -0.000   0.000
  0.000  -0.000   0.001  -0.000   0.000   0.000  -0.000  -0.003  -0.000   0.000   0.033  -0.015  -0.000   0.003   0.000  -0.000
  0.000  -0.003   0.000   0.000   0.000  -0.000  -0.001   0.000   0.000   0.000  -0.000   0.000  -0.010   0.000   0.000   0.001
  0.000  -0.000  -0.011   0.000   0.000   0.000  -0.000  -0.000  -0.000   0.000  -0.003   0.003   0.000  -0.007   0.000   0.000
  0.000   0.000   0.000  -0.003   0.000  -0.000   0.000   0.000  -0.001   0.000  -0.000   0.000   0.000  -0.000  -0.010   0.000
  0.000  -0.000   0.000   0.000   0.000   0.000   0.001   0.000   0.000  -0.000   0.000   0.000   0.001   0.000   0.000  -0.000
  0.000   0.000  -0.000   0.000   0.000   0.000   0.000   0.000   0.000   0.000   0.001  -0.001   0.000   0.001   0.000   0.000
  0.000   0.000   0.000  -0.000  -0.000   0.000   0.000  -0.000   0.001   0.000   0.000   0.000   0.000   0.000   0.001   0.000


------------------------ aborting loop because EDIFF is reached ----------------------------------------


 


 total charge     
 
# of ion       s       p       d       tot
------------------------------------------
    1        0.465   0.328   8.325   9.118
    2        0.489   0.484   8.321   9.294
    3        0.492   0.485   8.324   9.301
    4        0.498   0.503   8.329   9.331
    5        0.476   0.348   8.336   9.160
--------------------------------------------------
tot          2.421   2.148  41.635  46.204
 


 magnetization (x)
 
# of ion       s       p       d       tot
------------------------------------------
    1       -0.004  -0.022   0.737   0.711
    2       -0.008  -0.026   0.637   0.603
    3       -0.008  -0.027   0.634   0.599
    4       -0.008  -0.026   0.637   0.602
    5       -0.004  -0.022   0.725   0.699
--------------------------------------------------
tot         -0.032  -0.122   3.370   3.215
 
    CHARGE:  cpu time    0.0150: real time    0.0142
    FORLOC:  cpu time    0.0000: real time    0.0002
    FORNL :  cpu time    0.0940: real time    0.0939
    STRESS:  cpu time    0.1920: real time    0.1924
    FORCOR:  cpu time    0.0100: real time    0.0101
    FORHAR:  cpu time    0.0010: real time    0.0011
    MIXING:  cpu time    0.0020: real time    0.0015
    OFIELD:  cpu time    0.0000: real time    0.0001

  FORCE on cell =-STRESS in cart. coord.  units (eV):
  Direction    XX          YY          ZZ          XY          YZ          ZX
  --------------------------------------------------------------------------------------
  Alpha Z   229.19704   229.19704   229.19704
  Ewald   12492.00135 12492.00135-15558.52553    -0.00000     0.00000     0.00000
  Hartree 13990.84542 13990.84542-13205.02742     0.00000    -0.00000    -0.00000
  E(xc)    -274.49509  -274.49509  -275.02291    -0.00000    -0.00000     0.00000
  Local  -26918.87943-26918.87943 28324.88021     0.00000    -0.00000     0.00000
  n-local  -167.85300  -170.20451  -170.41066    -7.90705    -0.00000     0.00000
  augment   259.08414   259.08414   261.14252     0.00000    -0.00000    -0.00000
  Kinetic   382.08832   393.39972   391.77230     7.80394     0.00000    -0.00000
  Fock        0.00000     0.00000     0.00000     0.00000     0.00000     0.00000
  -------------------------------------------------------------------------------------
  Total      -3.53130    -3.53130    -1.99446     0.00000     0.00000    -0.00000
  in kB     -51.44956   -51.44956   -29.05840     0.00000     0.00000    -0.00000
  external pressure =      -43.99 kB  Pullay stress =        0.00 kB


 VOLUME and BASIS-vectors are now :
 -----------------------------------------------------------------------------
  energy-cutoff  :      270.00
  volume of cell :      109.97
      direct lattice vectors                 reciprocal lattice vectors
     1.765000000  1.765000000  0.000000000     0.283286119  0.283286119  0.000000000
    -1.765000000  1.765000000  0.000000000    -0.283286119  0.283286119  0.000000000
     0.000000000  0.000000000 17.650000000     0.000000000  0.000000000  0.056657224

  length of vectors
     2.496086938  2.496086938 17.650000000     0.400627071  0.400627071  0.056657224


 FORCES acting on ions
    electron-ion (+dipol)            ewald-force                    non-local-force                 convergence-correction
 -----------------------------------------------------------------------------------------------
   -.190E-12 0.222E-12 0.286E+04   0.317E-14 -.429E-13 -.286E+04   0.000E+00 0.000E+00 -.263E+01   -.326E-13 0.157E-13 -.409E-01
   0.147E-12 -.204E-12 0.146E+04   0.655E-14 -.148E-13 -.146E+04   0.331E-23 -.165E-23 -.184E+00   -.233E-13 0.437E-13 -.134E+00
   0.732E-14 0.220E-13 0.118E+02   0.116E-13 -.193E-13 -.117E+02   -.265E-22 -.132E-22 0.458E-01   -.629E-13 -.107E-13 -.121E+00
   0.217E-12 -.370E-12 -.145E+04   -.534E-14 -.367E-13 0.145E+04   0.827E-24 -.827E-24 0.184E+00   0.786E-14 -.314E-13 -.220E-01
   0.237E-12 -.255E-12 -.289E+04   0.665E-14 -.369E-13 0.289E+04   -.662E-23 0.000E+00 0.242E+01   0.178E-13 -.831E-13 0.505E-01
 -----------------------------------------------------------------------------------------------
   0.418E-12 -.585E-12 0.411E+00   0.226E-13 -.150E-12 -.455E-12   -.290E-22 -.157E-22 -.163E+00   -.932E-13 -.658E-13 -.267E+00
 
 
 POSITION                                       TOTAL-FORCE (eV/Angst)
 -----------------------------------------------------------------------------------
      0.00000      0.00000      0.00000         0.000000      0.000000      0.383255
      0.00000      1.76500      1.76500        -0.000000     -0.000000     -0.394600
      0.00000      0.00000      3.53000        -0.000000     -0.000000     -0.002945
      0.00000      1.76500      5.30249         0.000000      0.000000     -0.009740
      0.00000      0.00000      6.98837        -0.000000     -0.000000      0.024029
 -----------------------------------------------------------------------------------
    total drift:                                0.000000     -0.000000     -0.019445


--------------------------------------------------------------------------------------------------------



  FREE ENERGIE OF THE ION-ELECTRON SYSTEM (eV)
  ---------------------------------------------------
  free  energy   TOTEN  =       -26.10873746 eV

  energy  without entropy=      -26.10873746  energy(sigma->0) =      -26.10873746
 


--------------------------------------------------------------------------------------------------------


    POTLOK:  cpu time    0.0170: real time    0.0176


--------------------------------------------------------------------------------------------------------


 stress matrix after NEB project (eV)
     -3.53130      0.00000     -0.00000
      0.00000     -3.53130     -0.00000
      0.00000      0.00000     -1.99446
  FORCES: max atom, RMS     0.024029    0.011596
  FORCE total and by dimension    0.025928    0.024029
  Stress total and by dimension    5.377555    3.531305
 writing wavefunctions
     LOOP+:  cpu time   25.5661: real time   25.6313
    4ORBIT:  cpu time    0.0000: real time    0.0000
 


 total charge     
 
# of ion       s       p       d       tot
------------------------------------------
    1        0.465   0.328   8.325   9.118
    2        0.489   0.484   8.321   9.294
    3        0.492   0.485   8.324   9.301
    4        0.498   0.503   8.329   9.331
    5        0.476   0.348   8.336   9.160
--------------------------------------------------
tot          2.421   2.148  41.635  46.204
 


 magnetization (x)
 
# of ion       s       p       d       tot
------------------------------------------
    1       -0.004  -0.022   0.737   0.711
    2       -0.008  -0.026   0.637   0.603
    3       -0.008  -0.027   0.634   0.599
    4       -0.008  -0.026   0.637   0.602
    5       -0.004  -0.022   0.725   0.699
--------------------------------------------------
tot         -0.032  -0.122   3.370   3.215
 
 BZINTS: Fermi energy: -0.001130; 50.000000 electrons
         Band energy:-105.156115;  BLOECHL correction: -0.115230

 total amount of memory used by VASP MPI-rank0    35677. kBytes
=======================================================================

   base      :      30000. kBytes
   nonl-proj :       2544. kBytes
   fftplans  :        206. kBytes
   grid      :        998. kBytes
   one-center:        155. kBytes
   wavefun   :       1774. kBytes
 
  
  
 General timing and accounting informations for this job:
 ========================================================
  
                  Total CPU time used (sec):       27.148
                            User time (sec):       26.795
                          System time (sec):        0.353
                         Elapsed time (sec):       27.852
  
                   Maximum memory used (kb):       74748.
                   Average memory used (kb):           0.
  
                          Minor page faults:        16718
                          Major page faults:            4
                 Voluntary context switches:         2580
