PROCAR new format
# of k-points:   15         # of bands:   48         # of ions:    5

 k-point     1 :    0.00000000 0.00000000 0.00000000     weight = 0.01234568

band     1 # energy   -8.49810948 # occ.  1.00000000
 
ion      s      p      d    tot
    1  0.040  0.006  0.000  0.047
    2  0.163  0.003  0.000  0.167
    3  0.247  0.000  0.000  0.248
    4  0.195  0.002  0.000  0.198
    5  0.057  0.009  0.000  0.066
tot    0.704  0.021  0.001  0.725
 
band     2 # energy   -7.31886801 # occ.  1.00000000
 
ion      s      p      d    tot
    1  0.134  0.012  0.001  0.146
    2  0.192  0.005  0.006  0.202
    3  0.001  0.037  0.000  0.038
    4  0.169  0.008  0.006  0.183
    5  0.137  0.011  0.001  0.150
tot    0.632  0.073  0.014  0.720
 
band     3 # energy   -5.64341571 # occ.  1.00000000
 
ion      s      p      d    tot
    1  0.157  0.001  0.021  0.179
    2  0.004  0.060  0.003  0.067
    3  0.163  0.000  0.065  0.228
    4  0.003  0.061  0.002  0.066
    5  0.145  0.001  0.023  0.169
tot    0.470  0.123  0.114  0.708
 
band     4 # energy   -4.50586713 # occ.  1.00000000
 
ion      s      p      d    tot
    1  0.028  0.001  0.028  0.056
    2  0.011  0.010  0.012  0.033
    3  0.003  0.024  0.047  0.074
    4  0.046  0.011  0.293  0.351
    5  0.086  0.010  0.189  0.285
tot    0.173  0.056  0.570  0.799
 
band     5 # energy   -4.42715184 # occ.  1.00000000
 
ion      s      p      d    tot
    1  0.066  0.008  0.152  0.226
    2  0.041  0.003  0.316  0.360
    3  0.009  0.008  0.173  0.189
    4  0.000  0.003  0.047  0.050
    5  0.000  0.001  0.006  0.006
tot    0.117  0.022  0.693  0.832
 
band     6 # energy   -3.98714719 # occ.  1.00000000
 
ion      s      p      d    tot
    1  0.000  0.000  0.032  0.032
    2  0.000  0.000  0.175  0.175
    3  0.000  0.000  0.322  0.322
    4  0.000  0.000  0.317  0.317
    5  0.000  0.000  0.095  0.095
tot    0.000  0.000  0.942  0.942
 
band     7 # energy   -3.63027586 # occ.  1.00000000
 
ion      s      p      d    tot
    1  0.000  0.000  0.163  0.163
    2  0.000  0.000  0.350  0.350
    3  0.000  0.000  0.020  0.020
    4  0.000  0.000  0.228  0.228
    5  0.000  0.000  0.185  0.185
tot    0.000  0.000  0.946  0.946
 
band     8 # energy   -3.11773804 # occ.  1.00000000
 
ion      s      p      d    tot
    1  0.000  0.000  0.325  0.325
    2  0.000  0.000  0.023  0.023
    3  0.000  0.000  0.371  0.371
    4  0.000  0.000  0.003  0.003
    5  0.000  0.000  0.231  0.231
tot    0.000  0.000  0.955  0.955
 
band     9 # energy   -2.64168758 # occ.  1.00000000
 
ion      s      p      d    tot
    1  0.000  0.000  0.319  0.319
    2  0.000  0.000  0.204  0.204
    3  0.000  0.000  0.001  0.001
    4  0.000  0.000  0.164  0.164
    5  0.000  0.000  0.276  0.276
tot    0.000  0.000  0.965  0.965
 
band    10 # energy   -2.40577000 # occ.  1.00000000
 
ion      s      p      d    tot
    1  0.000  0.000  0.117  0.117
    2  0.000  0.000  0.203  0.203
    3  0.000  0.000  0.240  0.240
    4  0.000  0.000  0.244  0.244
    5  0.000  0.000  0.169  0.169
tot    0.000  0.000  0.973  0.973
 
band    11 # energy   -2.27386147 # occ.  1.00000000
 
ion      s      p      d    tot
    1  0.000  0.000  0.029  0.030
    2  0.000  0.000  0.202  0.202
    3  0.000  0.000  0.342  0.342
    4  0.000  0.000  0.332  0.332
    5  0.000  0.001  0.070  0.071
tot    0.000  0.002  0.975  0.977
 
band    12 # energy   -2.27386147 # occ.  1.00000000
 
ion      s      p      d    tot
    1  0.000  0.000  0.029  0.030
    2  0.000  0.000  0.202  0.202
    3  0.000  0.000  0.342  0.342
    4  0.000  0.000  0.332  0.332
    5  0.000  0.001  0.070  0.071
tot    0.000  0.002  0.975  0.977
 
band    13 # energy   -1.90757714 # occ.  1.00000000
 
ion      s      p      d    tot
    1  0.000  0.001  0.138  0.139
    2  0.000  0.000  0.386  0.386
    3  0.000  0.003  0.013  0.016
    4  0.000  0.001  0.282  0.282
    5  0.000  0.001  0.153  0.154
tot    0.000  0.006  0.972  0.978
 
band    14 # energy   -1.90757714 # occ.  1.00000000
 
ion      s      p      d    tot
    1  0.000  0.001  0.138  0.139
    2  0.000  0.000  0.386  0.386
    3  0.000  0.003  0.013  0.016
    4  0.000  0.001  0.282  0.282
    5  0.000  0.001  0.153  0.154
tot    0.000  0.006  0.972  0.978
 
band    15 # energy   -1.71921421 # occ.  1.00000000
 
ion      s      p      d    tot
    1  0.013  0.000  0.257  0.270
    2  0.000  0.009  0.004  0.014
    3  0.014  0.000  0.391  0.405
    4  0.000  0.010  0.028  0.039
    5  0.015  0.000  0.161  0.177
tot    0.042  0.020  0.842  0.905
 
band    16 # energy   -1.44746600 # occ.  1.00000000
 
ion      s      p      d    tot
    1  0.000  0.000  0.268  0.268
    2  0.002  0.000  0.281  0.283
    3  0.000  0.002  0.016  0.018
    4  0.001  0.000  0.135  0.136
    5  0.002  0.000  0.247  0.249
tot    0.006  0.002  0.947  0.955
 
band    17 # energy   -1.31418464 # occ.  1.00000000
 
ion      s      p      d    tot
    1  0.000  0.000  0.294  0.294
    2  0.000  0.004  0.034  0.038
    3  0.000  0.000  0.384  0.384
    4  0.000  0.004  0.009  0.013
    5  0.000  0.000  0.250  0.250
tot    0.000  0.008  0.972  0.980
 
band    18 # energy   -1.31418464 # occ.  1.00000000
 
ion      s      p      d    tot
    1  0.000  0.000  0.294  0.294
    2  0.000  0.004  0.034  0.038
    3  0.000  0.000  0.384  0.384
    4  0.000  0.004  0.009  0.013
    5  0.000  0.000  0.250  0.250
tot    0.000  0.008  0.972  0.980
 
band    19 # energy   -1.26060311 # occ.  1.00000000
 
ion      s      p      d    tot
    1  0.001  0.001  0.121  0.123
    2  0.000  0.000  0.133  0.134
    3  0.000  0.001  0.208  0.209
    4  0.000  0.000  0.291  0.291
    5  0.000  0.000  0.207  0.208
tot    0.002  0.002  0.960  0.965
 
band    20 # energy   -1.21819792 # occ.  1.00000000
 
ion      s      p      d    tot
    1  0.000  0.000  0.015  0.015
    2  0.000  0.000  0.125  0.125
    3  0.000  0.000  0.244  0.244
    4  0.000  0.000  0.485  0.485
    5  0.000  0.000  0.120  0.120
tot    0.000  0.000  0.989  0.989
 
band    21 # energy   -1.13715646 # occ.  1.00000000
 
ion      s      p      d    tot
    1  0.038  0.019  0.072  0.129
    2  0.037  0.016  0.153  0.206
    3  0.000  0.067  0.001  0.068
    4  0.036  0.017  0.098  0.151
    5  0.038  0.019  0.084  0.141
tot    0.149  0.139  0.408  0.696
 
band    22 # energy   -1.06372591 # occ.  1.00000000
 
ion      s      p      d    tot
    1  0.000  0.000  0.131  0.131
    2  0.000  0.000  0.505  0.505
    3  0.000  0.000  0.058  0.058
    4  0.000  0.000  0.187  0.187
    5  0.000  0.000  0.109  0.109
tot    0.000  0.000  0.990  0.990
 
band    23 # energy   -0.79445038 # occ.  1.00000000
 
ion      s      p      d    tot
    1  0.000  0.000  0.353  0.353
    2  0.000  0.001  0.149  0.150
    3  0.000  0.002  0.000  0.002
    4  0.000  0.001  0.148  0.150
    5  0.000  0.000  0.329  0.329
tot    0.000  0.005  0.980  0.984
 
band    24 # energy   -0.79445038 # occ.  1.00000000
 
ion      s      p      d    tot
    1  0.000  0.000  0.353  0.353
    2  0.000  0.001  0.149  0.150
    3  0.000  0.002  0.000  0.002
    4  0.000  0.001  0.148  0.150
    5  0.000  0.000  0.329  0.329
tot    0.000  0.005  0.980  0.984
 
band    25 # energy   -0.79118809 # occ.  1.00000000
 
ion      s      p      d    tot
    1  0.000  0.000  0.274  0.274
    2  0.000  0.000  0.042  0.042
    3  0.000  0.000  0.450  0.450
    4  0.000  0.000  0.002  0.002
    5  0.000  0.000  0.223  0.223
tot    0.000  0.000  0.991  0.991
 
band    26 # energy   -0.62554096 # occ.  1.00000000
 
ion      s      p      d    tot
    1  0.000  0.000  0.354  0.354
    2  0.000  0.000  0.111  0.111
    3  0.000  0.000  0.002  0.002
    4  0.000  0.000  0.156  0.156
    5  0.000  0.000  0.369  0.369
tot    0.000  0.000  0.992  0.992
 
band    27 # energy   -0.55111681 # occ.  1.00000000
 
ion      s      p      d    tot
    1  0.000  0.000  0.216  0.216
    2  0.000  0.000  0.208  0.208
    3  0.000  0.000  0.238  0.238
    4  0.000  0.000  0.162  0.162
    5  0.000  0.000  0.170  0.170
tot    0.000  0.000  0.993  0.993
 
band    28 # energy   -0.51876207 # occ.  1.00000000
 
ion      s      p      d    tot
    1  0.000  0.000  0.164  0.164
    2  0.000  0.000  0.206  0.206
    3  0.000  0.000  0.238  0.238
    4  0.000  0.000  0.206  0.206
    5  0.000  0.001  0.176  0.177
tot    0.000  0.001  0.990  0.991
 
band    29 # energy   -0.51876207 # occ.  1.01628959
 
ion      s      p      d    tot
    1  0.000  0.000  0.164  0.164
    2  0.000  0.000  0.206  0.206
    3  0.000  0.000  0.238  0.238
    4  0.000  0.000  0.206  0.206
    5  0.000  0.001  0.176  0.177
tot    0.000  0.001  0.990  0.991
 
band    30 # energy    0.59879240 # occ.  0.00000000
 
ion      s      p      d    tot
    1  0.004  0.106  0.000  0.111
    2  0.022  0.044  0.032  0.097
    3  0.037  0.001  0.039  0.077
    4  0.026  0.027  0.043  0.096
    5  0.004  0.088  0.001  0.093
tot    0.092  0.266  0.116  0.474
 
band    31 # energy    1.95253451 # occ.  0.00000000
 
ion      s      p      d    tot
    1  0.004  0.068  0.011  0.083
    2  0.002  0.093  0.001  0.096
    3  0.000  0.111  0.000  0.112
    4  0.000  0.110  0.000  0.110
    5  0.004  0.086  0.017  0.108
tot    0.010  0.469  0.030  0.509
 
band    32 # energy    4.51604968 # occ.  0.00000000
 
ion      s      p      d    tot
    1  0.007  0.009  0.005  0.021
    2  0.004  0.002  0.003  0.010
    3  0.004  0.000  0.003  0.007
    4  0.004  0.002  0.003  0.009
    5  0.006  0.009  0.004  0.019
tot    0.025  0.021  0.019  0.066
 
band    33 # energy    5.85755052 # occ.  0.00000000
 
ion      s      p      d    tot
    1  0.009  0.026  0.007  0.042
    2  0.002  0.016  0.001  0.019
    3  0.000  0.014  0.000  0.014
    4  0.002  0.016  0.002  0.020
    5  0.007  0.029  0.005  0.042
tot    0.020  0.101  0.016  0.137
 
band    34 # energy    7.73770314 # occ.  0.00000000
 
ion      s      p      d    tot
    1  0.025  0.005  0.027  0.058
    2  0.019  0.001  0.018  0.038
    3  0.016  0.000  0.016  0.032
    4  0.017  0.001  0.017  0.035
    5  0.023  0.007  0.024  0.054
tot    0.100  0.013  0.103  0.216
 
band    35 # energy   10.86592620 # occ.  0.00000000
 
ion      s      p      d    tot
    1  0.024  0.006  0.040  0.069
    2  0.009  0.014  0.014  0.037
    3  0.000  0.018  0.000  0.019
    4  0.005  0.016  0.008  0.029
    5  0.018  0.014  0.029  0.061
tot    0.056  0.068  0.092  0.215
 
band    36 # energy   11.53306322 # occ.  0.00000000
 
ion      s      p      d    tot
    1  0.011  0.032  0.024  0.067
    2  0.039  0.010  0.071  0.120
    3  0.053  0.000  0.098  0.151
    4  0.038  0.012  0.069  0.119
    5  0.015  0.020  0.033  0.069
tot    0.157  0.074  0.294  0.525
 
band    37 # energy   15.37132106 # occ.  0.00000000
 
ion      s      p      d    tot
    1  0.000  0.046  0.007  0.053
    2  0.000  0.148  0.003  0.152
    3  0.000  0.210  0.000  0.210
    4  0.000  0.168  0.002  0.170
    5  0.000  0.060  0.009  0.069
tot    0.000  0.633  0.022  0.655
 
band    38 # energy   15.37132106 # occ.  0.00000000
 
ion      s      p      d    tot
    1  0.000  0.046  0.007  0.053
    2  0.000  0.148  0.003  0.152
    3  0.000  0.210  0.000  0.210
    4  0.000  0.168  0.002  0.170
    5  0.000  0.060  0.009  0.069
tot    0.000  0.633  0.022  0.655
 
band    39 # energy   15.69895187 # occ.  0.00000000
 
ion      s      p      d    tot
    1  0.004  0.031  0.015  0.050
    2  0.004  0.027  0.021  0.052
    3  0.013  0.000  0.076  0.090
    4  0.003  0.030  0.015  0.048
    5  0.004  0.033  0.013  0.049
tot    0.027  0.122  0.141  0.290
 
band    40 # energy   16.29639963 # occ.  0.00000000
 
ion      s      p      d    tot
    1  0.009  0.014  0.068  0.091
    2  0.010  0.011  0.068  0.090
    3  0.000  0.043  0.001  0.043
    4  0.011  0.005  0.082  0.098
    5  0.010  0.010  0.072  0.092
tot    0.040  0.083  0.291  0.414
 
band    41 # energy   16.93617737 # occ.  0.00000000
 
ion      s      p      d    tot
    1  0.000  0.145  0.010  0.154
    2  0.000  0.157  0.008  0.165
    3  0.000  0.000  0.039  0.040
    4  0.000  0.143  0.011  0.153
    5  0.000  0.145  0.009  0.154
tot    0.000  0.590  0.077  0.666
 
band    42 # energy   16.93617737 # occ.  0.00000000
 
ion      s      p      d    tot
    1  0.000  0.145  0.010  0.154
    2  0.000  0.157  0.008  0.165
    3  0.000  0.000  0.039  0.040
    4  0.000  0.143  0.011  0.153
    5  0.000  0.145  0.009  0.154
tot    0.000  0.590  0.077  0.666
 
band    43 # energy   19.27326579 # occ.  0.00000000
 
ion      s      p      d    tot
    1  0.000  0.176  0.000  0.176
    2  0.000  0.000  0.074  0.074
    3  0.000  0.171  0.000  0.171
    4  0.000  0.000  0.074  0.074
    5  0.000  0.161  0.000  0.161
tot    0.000  0.507  0.148  0.655
 
band    44 # energy   19.27326579 # occ.  0.00000000
 
ion      s      p      d    tot
    1  0.000  0.176  0.000  0.176
    2  0.000  0.000  0.074  0.074
    3  0.000  0.171  0.000  0.171
    4  0.000  0.000  0.074  0.074
    5  0.000  0.161  0.000  0.161
tot    0.000  0.507  0.148  0.655
 
band    45 # energy   19.81856557 # occ.  0.00000000
 
ion      s      p      d    tot
    1  0.000  0.000  0.048  0.048
    2  0.000  0.000  0.243  0.243
    3  0.000  0.000  0.383  0.383
    4  0.000  0.000  0.259  0.259
    5  0.000  0.000  0.053  0.053
tot    0.000  0.000  0.986  0.986
 
band    46 # energy   20.37832558 # occ.  0.00000000
 
ion      s      p      d    tot
    1  0.000  0.000  0.175  0.175
    2  0.000  0.000  0.289  0.289
    3  0.000  0.000  0.000  0.000
    4  0.000  0.000  0.279  0.279
    5  0.000  0.000  0.166  0.166
tot    0.000  0.000  0.908  0.908
 
band    47 # energy   21.25912050 # occ.  0.00000000
 
ion      s      p      d    tot
    1  0.003  0.019  0.001  0.024
    2  0.001  0.000  0.107  0.108
    3  0.000  0.007  0.004  0.011
    4  0.002  0.002  0.100  0.104
    5  0.003  0.016  0.001  0.020
tot    0.009  0.044  0.213  0.267
 
band    48 # energy   21.27892857 # occ.  0.00000000
 
ion      s      p      d    tot
    1  0.000  0.000  0.240  0.240
    2  0.000  0.000  0.008  0.008
    3  0.000  0.000  0.234  0.234
    4  0.000  0.000  0.015  0.015
    5  0.000  0.000  0.261  0.261
tot    0.000  0.000  0.757  0.757
 

 k-point     2 :    0.11111111 0.00000000 0.00000000     weight = 0.04938272

band     1 # energy   -8.18637463 # occ.  1.00000000
 
ion      s      p      d    tot
    1  0.039  0.007  0.001  0.047
    2  0.158  0.008  0.001  0.167
    3  0.241  0.007  0.000  0.248
    4  0.190  0.008  0.001  0.198
    5  0.055  0.010  0.001  0.066
tot    0.683  0.041  0.003  0.726
 
band     2 # energy   -7.02703798 # occ.  1.00000000
 
ion      s      p      d    tot
    1  0.128  0.016  0.002  0.145
    2  0.187  0.010  0.006  0.203
    3  0.001  0.037  0.004  0.042
    4  0.164  0.013  0.007  0.183
    5  0.132  0.015  0.002  0.149
tot    0.611  0.091  0.021  0.722
 
band     3 # energy   -5.39228537 # occ.  1.00000000
 
ion      s      p      d    tot
    1  0.148  0.006  0.019  0.174
    2  0.004  0.059  0.014  0.076
    3  0.155  0.005  0.065  0.225
    4  0.003  0.059  0.014  0.075
    5  0.138  0.005  0.021  0.165
tot    0.448  0.135  0.133  0.715
 
band     4 # energy   -4.31234180 # occ.  1.00000000
 
ion      s      p      d    tot
    1  0.010  0.000  0.006  0.016
    2  0.003  0.007  0.002  0.012
    3  0.004  0.017  0.096  0.117
    4  0.039  0.011  0.340  0.390
    5  0.076  0.013  0.198  0.287
tot    0.132  0.049  0.640  0.822
 
band     5 # energy   -4.24201633 # occ.  1.00000000
 
ion      s      p      d    tot
    1  0.079  0.012  0.177  0.267
    2  0.042  0.009  0.335  0.386
    3  0.005  0.015  0.130  0.150
    4  0.001  0.006  0.009  0.016
    5  0.004  0.000  0.001  0.005
tot    0.130  0.041  0.652  0.823
 
band     6 # energy   -3.88759192 # occ.  1.00000000
 
ion      s      p      d    tot
    1  0.000  0.000  0.030  0.031
    2  0.000  0.002  0.171  0.173
    3  0.000  0.004  0.319  0.323
    4  0.000  0.004  0.315  0.319
    5  0.000  0.001  0.093  0.094
tot    0.000  0.011  0.928  0.940
 
band     7 # energy   -3.54523149 # occ.  1.00000000
 
ion      s      p      d    tot
    1  0.000  0.002  0.153  0.155
    2  0.000  0.004  0.346  0.350
    3  0.000  0.001  0.027  0.028
    4  0.000  0.003  0.226  0.229
    5  0.000  0.002  0.179  0.181
tot    0.001  0.012  0.931  0.943
 
band     8 # energy   -3.06579357 # occ.  1.00000000
 
ion      s      p      d    tot
    1  0.000  0.003  0.301  0.304
    2  0.000  0.001  0.047  0.047
    3  0.000  0.003  0.352  0.356
    4  0.000  0.001  0.025  0.025
    5  0.000  0.002  0.216  0.219
tot    0.001  0.010  0.940  0.951
 
band     9 # energy   -2.63415535 # occ.  1.00000000
 
ion      s      p      d    tot
    1  0.000  0.002  0.263  0.265
    2  0.000  0.001  0.192  0.194
    3  0.000  0.001  0.092  0.092
    4  0.000  0.001  0.193  0.194
    5  0.000  0.002  0.214  0.217
tot    0.001  0.007  0.954  0.962
 
band    10 # energy   -2.33743782 # occ.  1.00000000
 
ion      s      p      d    tot
    1  0.000  0.000  0.156  0.156
    2  0.000  0.001  0.204  0.205
    3  0.000  0.001  0.198  0.198
    4  0.000  0.001  0.217  0.217
    5  0.000  0.000  0.194  0.194
tot    0.000  0.003  0.968  0.971
 
band    11 # energy   -2.29606799 # occ.  1.00000000
 
ion      s      p      d    tot
    1  0.000  0.000  0.102  0.102
    2  0.000  0.000  0.189  0.189
    3  0.000  0.001  0.210  0.212
    4  0.000  0.000  0.293  0.294
    5  0.000  0.000  0.175  0.176
tot    0.001  0.002  0.970  0.972
 
band    12 # energy   -2.23316322 # occ.  1.00000000
 
ion      s      p      d    tot
    1  0.000  0.000  0.026  0.026
    2  0.000  0.000  0.193  0.193
    3  0.000  0.000  0.345  0.345
    4  0.000  0.000  0.342  0.342
    5  0.000  0.001  0.070  0.071
tot    0.000  0.002  0.975  0.977
 
band    13 # energy   -2.11530485 # occ.  1.00000000
 
ion      s      p      d    tot
    1  0.001  0.001  0.144  0.146
    2  0.000  0.000  0.264  0.265
    3  0.002  0.002  0.215  0.219
    4  0.000  0.002  0.202  0.204
    5  0.003  0.001  0.124  0.128
tot    0.006  0.005  0.949  0.960
 
band    14 # energy   -1.93168951 # occ.  1.00000000
 
ion      s      p      d    tot
    1  0.000  0.001  0.121  0.122
    2  0.000  0.000  0.377  0.377
    3  0.000  0.003  0.058  0.061
    4  0.000  0.001  0.277  0.277
    5  0.000  0.001  0.140  0.141
tot    0.000  0.006  0.972  0.978
 
band    15 # energy   -1.83880244 # occ.  1.00000000
 
ion      s      p      d    tot
    1  0.014  0.002  0.121  0.137
    2  0.010  0.009  0.177  0.197
    3  0.000  0.023  0.317  0.340
    4  0.010  0.008  0.124  0.143
    5  0.011  0.002  0.080  0.093
tot    0.046  0.045  0.818  0.909
 
band    16 # energy   -1.51717864 # occ.  1.00000000
 
ion      s      p      d    tot
    1  0.006  0.001  0.391  0.398
    2  0.001  0.014  0.035  0.050
    3  0.015  0.001  0.212  0.227
    4  0.000  0.011  0.040  0.051
    5  0.005  0.001  0.223  0.229
tot    0.026  0.027  0.901  0.955
 
band    17 # energy   -1.47778313 # occ.  1.00000000
 
ion      s      p      d    tot
    1  0.000  0.000  0.196  0.197
    2  0.000  0.002  0.153  0.155
    3  0.000  0.000  0.209  0.210
    4  0.000  0.003  0.212  0.215
    5  0.000  0.000  0.203  0.203
tot    0.000  0.006  0.974  0.980
 
band    18 # energy   -1.38475278 # occ.  1.00000000
 
ion      s      p      d    tot
    1  0.002  0.000  0.284  0.287
    2  0.000  0.000  0.208  0.209
    3  0.001  0.000  0.076  0.077
    4  0.000  0.003  0.062  0.065
    5  0.008  0.001  0.292  0.301
tot    0.011  0.005  0.923  0.939
 
band    19 # energy   -1.27936798 # occ.  1.00000000
 
ion      s      p      d    tot
    1  0.000  0.000  0.074  0.074
    2  0.000  0.000  0.292  0.292
    3  0.000  0.000  0.149  0.150
    4  0.000  0.000  0.341  0.341
    5  0.000  0.000  0.129  0.129
tot    0.000  0.001  0.985  0.986
 
band    20 # energy   -1.24278347 # occ.  1.00000000
 
ion      s      p      d    tot
    1  0.000  0.000  0.082  0.082
    2  0.000  0.000  0.150  0.151
    3  0.000  0.000  0.213  0.213
    4  0.000  0.000  0.290  0.291
    5  0.001  0.000  0.235  0.236
tot    0.001  0.001  0.971  0.973
 
band    21 # energy   -1.10261043 # occ.  1.00000000
 
ion      s      p      d    tot
    1  0.011  0.015  0.226  0.252
    2  0.002  0.000  0.193  0.195
    3  0.000  0.002  0.015  0.017
    4  0.003  0.000  0.175  0.178
    5  0.010  0.014  0.194  0.219
tot    0.026  0.032  0.803  0.861
 
band    22 # energy   -1.02390255 # occ.  1.00000000
 
ion      s      p      d    tot
    1  0.000  0.000  0.241  0.241
    2  0.000  0.001  0.166  0.168
    3  0.000  0.000  0.284  0.284
    4  0.000  0.000  0.082  0.083
    5  0.000  0.000  0.212  0.212
tot    0.000  0.002  0.986  0.987
 
band    23 # energy   -1.02036681 # occ.  1.00000000
 
ion      s      p      d    tot
    1  0.001  0.003  0.277  0.281
    2  0.002  0.014  0.129  0.145
    3  0.000  0.024  0.036  0.060
    4  0.002  0.014  0.137  0.153
    5  0.001  0.003  0.312  0.316
tot    0.006  0.058  0.891  0.955
 
band    24 # energy   -0.99248523 # occ.  1.00000000
 
ion      s      p      d    tot
    1  0.000  0.000  0.267  0.267
    2  0.000  0.000  0.099  0.100
    3  0.000  0.001  0.388  0.388
    4  0.000  0.002  0.026  0.028
    5  0.000  0.000  0.202  0.202
tot    0.000  0.003  0.982  0.985
 
band    25 # energy   -0.71378252 # occ.  1.00000000
 
ion      s      p      d    tot
    1  0.000  0.000  0.161  0.161
    2  0.000  0.000  0.121  0.122
    3  0.000  0.000  0.001  0.001
    4  0.000  0.000  0.221  0.221
    5  0.000  0.000  0.483  0.483
tot    0.000  0.001  0.988  0.989
 
band    26 # energy   -0.70634702 # occ.  1.00000000
 
ion      s      p      d    tot
    1  0.000  0.000  0.564  0.564
    2  0.000  0.000  0.156  0.157
    3  0.000  0.001  0.002  0.002
    4  0.000  0.000  0.073  0.074
    5  0.000  0.000  0.192  0.192
tot    0.000  0.002  0.988  0.989
 
band    27 # energy   -0.57914015 # occ.  1.00000000
 
ion      s      p      d    tot
    1  0.000  0.000  0.145  0.145
    2  0.000  0.000  0.215  0.215
    3  0.000  0.000  0.307  0.307
    4  0.000  0.000  0.189  0.189
    5  0.000  0.000  0.135  0.135
tot    0.000  0.001  0.991  0.991
 
band    28 # energy   -0.49834890 # occ.  1.00000000
 
ion      s      p      d    tot
    1  0.000  0.000  0.174  0.174
    2  0.000  0.000  0.193  0.193
    3  0.000  0.000  0.222  0.222
    4  0.000  0.000  0.202  0.202
    5  0.000  0.000  0.202  0.202
tot    0.000  0.000  0.993  0.993
 
band    29 # energy   -0.42380417 # occ.  0.92680105
 
ion      s      p      d    tot
    1  0.023  0.027  0.050  0.100
    2  0.026  0.007  0.134  0.167
    3  0.000  0.028  0.225  0.254
    4  0.025  0.007  0.128  0.160
    5  0.022  0.026  0.035  0.083
tot    0.096  0.095  0.572  0.762
 
band    30 # energy    1.20139505 # occ.  0.00000000
 
ion      s      p      d    tot
    1  0.002  0.086  0.051  0.140
    2  0.019  0.038  0.050  0.107
    3  0.034  0.003  0.038  0.075
    4  0.022  0.027  0.050  0.100
    5  0.002  0.077  0.044  0.123
tot    0.080  0.231  0.233  0.544
 
band    31 # energy    2.64726652 # occ.  0.00000000
 
ion      s      p      d    tot
    1  0.005  0.057  0.026  0.088
    2  0.002  0.082  0.024  0.108
    3  0.000  0.098  0.028  0.126
    4  0.001  0.094  0.026  0.120
    5  0.005  0.069  0.034  0.108
tot    0.013  0.399  0.138  0.550
 
band    32 # energy    4.81421269 # occ.  0.00000000
 
ion      s      p      d    tot
    1  0.007  0.009  0.006  0.022
    2  0.005  0.002  0.004  0.011
    3  0.004  0.000  0.003  0.008
    4  0.005  0.002  0.004  0.010
    5  0.006  0.010  0.005  0.020
tot    0.026  0.023  0.022  0.071
 
band    33 # energy    6.19395312 # occ.  0.00000000
 
ion      s      p      d    tot
    1  0.008  0.028  0.007  0.043
    2  0.002  0.018  0.003  0.023
    3  0.000  0.016  0.001  0.017
    4  0.002  0.018  0.003  0.024
    5  0.007  0.031  0.006  0.044
tot    0.018  0.112  0.021  0.151
 
band    34 # energy    7.98717626 # occ.  0.00000000
 
ion      s      p      d    tot
    1  0.024  0.005  0.027  0.057
    2  0.019  0.002  0.019  0.040
    3  0.016  0.001  0.017  0.035
    4  0.017  0.002  0.018  0.037
    5  0.022  0.007  0.025  0.054
tot    0.098  0.018  0.107  0.223
 
band    35 # energy   11.14149476 # occ.  0.00000000
 
ion      s      p      d    tot
    1  0.021  0.008  0.040  0.069
    2  0.008  0.016  0.016  0.039
    3  0.000  0.019  0.002  0.021
    4  0.004  0.017  0.009  0.030
    5  0.016  0.016  0.029  0.061
tot    0.049  0.076  0.096  0.221
 
band    36 # energy   11.68374058 # occ.  0.00000000
 
ion      s      p      d    tot
    1  0.006  0.035  0.025  0.066
    2  0.024  0.023  0.070  0.116
    3  0.033  0.017  0.097  0.146
    4  0.023  0.025  0.070  0.118
    5  0.009  0.026  0.035  0.070
tot    0.094  0.125  0.297  0.517
 
band    37 # energy   12.75088927 # occ.  0.00000000
 
ion      s      p      d    tot
    1  0.011  0.034  0.014  0.059
    2  0.035  0.102  0.034  0.171
    3  0.049  0.144  0.045  0.238
    4  0.037  0.113  0.036  0.186
    5  0.013  0.040  0.017  0.070
tot    0.145  0.432  0.147  0.724
 
band    38 # energy   13.96429076 # occ.  0.00000000
 
ion      s      p      d    tot
    1  0.017  0.103  0.047  0.168
    2  0.018  0.111  0.052  0.181
    3  0.000  0.002  0.032  0.034
    4  0.016  0.104  0.050  0.170
    5  0.016  0.103  0.047  0.166
tot    0.068  0.423  0.229  0.719
 
band    39 # energy   15.72648037 # occ.  0.00000000
 
ion      s      p      d    tot
    1  0.008  0.099  0.051  0.158
    2  0.001  0.001  0.049  0.051
    3  0.003  0.079  0.074  0.156
    4  0.001  0.001  0.047  0.050
    5  0.008  0.093  0.047  0.147
tot    0.021  0.273  0.268  0.562
 
band    40 # energy   15.83464262 # occ.  0.00000000
 
ion      s      p      d    tot
    1  0.000  0.045  0.009  0.054
    2  0.000  0.146  0.009  0.155
    3  0.000  0.207  0.008  0.216
    4  0.000  0.165  0.009  0.174
    5  0.000  0.058  0.011  0.070
tot    0.000  0.621  0.046  0.668
 
band    41 # energy   16.11488178 # occ.  0.00000000
 
ion      s      p      d    tot
    1  0.017  0.050  0.020  0.087
    2  0.003  0.034  0.024  0.060
    3  0.033  0.030  0.056  0.119
    4  0.002  0.037  0.020  0.059
    5  0.016  0.052  0.019  0.087
tot    0.070  0.203  0.138  0.412
 
band    42 # energy   16.60239086 # occ.  0.00000000
 
ion      s      p      d    tot
    1  0.013  0.016  0.061  0.090
    2  0.016  0.013  0.061  0.090
    3  0.000  0.049  0.001  0.050
    4  0.018  0.006  0.073  0.097
    5  0.013  0.012  0.065  0.090
tot    0.059  0.097  0.261  0.417
 
band    43 # energy   17.36218910 # occ.  0.00000000
 
ion      s      p      d    tot
    1  0.000  0.142  0.015  0.157
    2  0.000  0.155  0.013  0.169
    3  0.000  0.000  0.038  0.038
    4  0.000  0.142  0.015  0.157
    5  0.000  0.142  0.014  0.157
tot    0.000  0.581  0.096  0.677
 
band    44 # energy   17.94511218 # occ.  0.00000000
 
ion      s      p      d    tot
    1  0.011  0.059  0.052  0.122
    2  0.011  0.063  0.057  0.130
    3  0.000  0.009  0.062  0.071
    4  0.010  0.057  0.059  0.126
    5  0.011  0.058  0.054  0.123
tot    0.042  0.246  0.284  0.572
 
band    45 # energy   19.65858131 # occ.  0.00000000
 
ion      s      p      d    tot
    1  0.000  0.174  0.006  0.180
    2  0.000  0.000  0.072  0.072
    3  0.000  0.168  0.006  0.174
    4  0.000  0.000  0.072  0.072
    5  0.000  0.159  0.006  0.165
tot    0.000  0.502  0.162  0.664
 
band    46 # energy   20.05809791 # occ.  0.00000000
 
ion      s      p      d    tot
    1  0.001  0.017  0.057  0.075
    2  0.004  0.032  0.051  0.088
    3  0.008  0.046  0.036  0.091
    4  0.005  0.035  0.051  0.091
    5  0.001  0.016  0.056  0.073
tot    0.020  0.146  0.252  0.417
 
band    47 # energy   20.97645189 # occ.  0.00000000
 
ion      s      p      d    tot
    1  0.004  0.005  0.036  0.044
    2  0.023  0.004  0.169  0.197
    3  0.035  0.002  0.307  0.344
    4  0.025  0.005  0.195  0.225
    5  0.004  0.003  0.043  0.051
tot    0.092  0.019  0.751  0.861
 
band    48 # energy   21.26671940 # occ.  0.00000000
 
ion      s      p      d    tot
    1  0.011  0.006  0.066  0.084
    2  0.011  0.001  0.186  0.198
    3  0.000  0.000  0.004  0.004
    4  0.008  0.002  0.153  0.163
    5  0.009  0.007  0.048  0.064
tot    0.039  0.016  0.458  0.513
 

 k-point     3 :    0.22222222 0.00000000 0.00000000     weight = 0.04938272

band     1 # energy   -7.29527522 # occ.  1.00000000
 
ion      s      p      d    tot
    1  0.033  0.010  0.003  0.046
    2  0.142  0.021  0.004  0.167
    3  0.221  0.027  0.004  0.251
    4  0.173  0.023  0.004  0.200
    5  0.048  0.014  0.005  0.067
tot    0.617  0.095  0.020  0.731
 
band     2 # energy   -6.22957440 # occ.  1.00000000
 
ion      s      p      d    tot
    1  0.108  0.024  0.009  0.141
    2  0.170  0.023  0.012  0.206
    3  0.001  0.033  0.025  0.059
    4  0.149  0.023  0.015  0.186
    5  0.112  0.025  0.009  0.146
tot    0.540  0.127  0.071  0.738
 
band     3 # energy   -4.81907938 # occ.  1.00000000
 
ion      s      p      d    tot
    1  0.117  0.014  0.023  0.154
    2  0.006  0.046  0.069  0.120
    3  0.124  0.010  0.082  0.215
    4  0.003  0.047  0.071  0.122
    5  0.112  0.012  0.027  0.151
tot    0.361  0.130  0.271  0.762
 
band     4 # energy   -3.94414633 # occ.  1.00000000
 
ion      s      p      d    tot
    1  0.016  0.001  0.022  0.038
    2  0.004  0.007  0.020  0.031
    3  0.002  0.014  0.085  0.101
    4  0.023  0.008  0.363  0.394
    5  0.062  0.006  0.229  0.298
tot    0.108  0.036  0.718  0.862
 
band     5 # energy   -3.84993761 # occ.  1.00000000
 
ion      s      p      d    tot
    1  0.058  0.007  0.191  0.257
    2  0.021  0.005  0.363  0.389
    3  0.003  0.007  0.170  0.179
    4  0.000  0.002  0.039  0.042
    5  0.000  0.000  0.004  0.004
tot    0.083  0.022  0.767  0.871
 
band     6 # energy   -3.59852071 # occ.  1.00000000
 