<?xml version="1.0" encoding="ISO-8859-1"?>
<modeling>
 <generator>
  <i name="program" type="string">vasp </i>
  <i name="version" type="string">5.4.4.18Apr17-6-g9f103f2a35  </i>
  <i name="subversion" type="string">(build Apr 07 2018 02:38:49) complex            parallel </i>
  <i name="platform" type="string">LinuxIFC </i>
  <i name="date" type="string">2018 12 20 </i>
  <i name="time" type="string">16:51:46 </i>
 </generator>
 <incar>
  <i type="string" name="SYSTEM"> clean (100) Ni surface</i>
  <i type="string" name="PREC">normal</i>
  <i type="string" name="ALGO"> Normal</i>
  <i type="int" name="ISPIN">     2</i>
  <i name="ENMAX">    270.00000000</i>
  <v name="MAGMOM">      1.00000000      1.00000000      1.00000000      1.00000000      1.00000000</v>
  <i type="int" name="ISMEAR">    -5</i>
  <i type="int" name="LORBIT">    10</i>
  <v type="int" name="KPOINT_BSE">    -1     0     0     0</v>
 </incar>
 <structure name="primitive_cell" >
  <crystal>
   <varray name="basis" >
    <v>       1.76500000       1.76500000       0.00000000 </v>
    <v>      -1.76500000       1.76500000       0.00000000 </v>
    <v>       0.00000000       0.00000000      17.65000000 </v>
   </varray>
   <i name="volume">    109.96744250 </i>
   <varray name="rec_basis" >
    <v>       0.28328612       0.28328612       0.00000000 </v>
    <v>      -0.28328612       0.28328612       0.00000000 </v>
    <v>       0.00000000       0.00000000       0.05665722 </v>
   </varray>
  </crystal>
  <varray name="positions" >
   <v>       0.00000000       0.00000000       0.00000000 </v>
   <v>      -0.50000000      -0.50000000       0.10000000 </v>
   <v>       0.00000000       0.00000000       0.20000000 </v>
   <v>      -0.50000000      -0.50000000       0.30042453 </v>
   <v>       0.00000000       0.00000000       0.39594145 </v>
  </varray>
 </structure>
 <varray name="primitive_index" >
  <v type="int" >        1 </v>
  <v type="int" >        2 </v>
  <v type="int" >        3 </v>
  <v type="int" >        4 </v>
  <v type="int" >        5 </v>
 </varray>
 <kpoints>
  <generation param="Monkhorst-Pack">
   <v type="int" name="divisions">       9        9        1 </v>
   <v name="usershift">      0.00000000       0.00000000       0.00000000 </v>
   <v name="genvec1">      0.11111111       0.00000000       0.00000000 </v>
   <v name="genvec2">      0.00000000       0.11111111       0.00000000 </v>
   <v name="genvec3">      0.00000000       0.00000000       1.00000000 </v>
   <v name="shift">      0.00000000       0.00000000       0.00000000 </v>
  </generation>
  <varray name="kpointlist" >
   <v>       0.00000000       0.00000000       0.00000000 </v>
   <v>       0.11111111       0.00000000       0.00000000 </v>
   <v>       0.22222222       0.00000000       0.00000000 </v>
   <v>       0.33333333       0.00000000       0.00000000 </v>
   <v>       0.44444444       0.00000000       0.00000000 </v>
   <v>       0.11111111       0.11111111       0.00000000 </v>
   <v>       0.22222222       0.11111111       0.00000000 </v>
   <v>       0.33333333       0.11111111       0.00000000 </v>
   <v>       0.44444444       0.11111111       0.00000000 </v>
   <v>       0.22222222       0.22222222       0.00000000 </v>
   <v>       0.33333333       0.22222222       0.00000000 </v>
   <v>       0.44444444       0.22222222       0.00000000 </v>
   <v>       0.33333333       0.33333333       0.00000000 </v>
   <v>       0.44444444       0.33333333       0.00000000 </v>
   <v>       0.44444444       0.44444444       0.00000000 </v>
  </varray>
  <varray name="weights" >
   <v>       0.01234568 </v>
   <v>       0.04938272 </v>
   <v>       0.04938272 </v>
   <v>       0.04938272 </v>
   <v>       0.04938272 </v>
   <v>       0.04938272 </v>
   <v>       0.09876543 </v>
   <v>       0.09876543 </v>
   <v>       0.09876543 </v>
   <v>       0.04938272 </v>
   <v>       0.09876543 </v>
   <v>       0.09876543 </v>
   <v>       0.04938272 </v>
   <v>       0.09876543 </v>
   <v>       0.04938272 </v>
  </varray>
  <varray name="tetrahedronlist"  type="int" >
   <v type="int" >        4        2        2        2        6 </v>
   <v type="int" >        4        1        2        2        2 </v>
   <v type="int" >        2        1        1        2        2 </v>
   <v type="int" >        2        2        2        6        6 </v>
   <v type="int" >        4        3        6        6        7 </v>
   <v type="int" >        4        2        3        6        6 </v>
   <v type="int" >        4        2        2        3        6 </v>
   <v type="int" >        4        3        6        7        7 </v>
   <v type="int" >        4        3        3        6        7 </v>
   <v type="int" >        4        2        3        3        6 </v>
   <v type="int" >        4        4        7        7        8 </v>
   <v type="int" >        4        3        4        7        7 </v>
   <v type="int" >        4        3        3        4        7 </v>
   <v type="int" >        4        4        7        8        8 </v>
   <v type="int" >        4        4        4        7        8 </v>
   <v type="int" >        4        3        4        4        7 </v>
   <v type="int" >        4        5        8        8        9 </v>
   <v type="int" >        4        4        5        8        8 </v>
   <v type="int" >        4        4        4        5        8 </v>
   <v type="int" >        4        5        8        9        9 </v>
   <v type="int" >        4        5        5        8        9 </v>
   <v type="int" >        4        4        5        5        8 </v>
   <v type="int" >        8        5        9        9        9 </v>
   <v type="int" >        8        5        5        9        9 </v>
   <v type="int" >        8        5        5        5        9 </v>
   <v type="int" >        4        4        8        9        9 </v>
   <v type="int" >        4        4        5        9        9 </v>
   <v type="int" >        4        4        5        5        9 </v>
   <v type="int" >        4        4        8        8        9 </v>
   <v type="int" >        4        4        4        8        9 </v>
   <v type="int" >        4        4        4        5        9 </v>
   <v type="int" >        4        3        7        8        8 </v>
   <v type="int" >        4        3        4        8        8 </v>
   <v type="int" >        4        3        4        4        8 </v>
   <v type="int" >        4        3        7        7        8 </v>
   <v type="int" >        4        3        3        7        8 </v>
   <v type="int" >        4        3        3        4        8 </v>
   <v type="int" >        4        2        6        7        7 </v>
   <v type="int" >        4        2        3        7        7 </v>
   <v type="int" >        4        2        3        3        7 </v>
   <v type="int" >        4        2        6        6        7 </v>
   <v type="int" >        4        2        2        6        7 </v>
   <v type="int" >        4        2        2        3        7 </v>
   <v type="int" >        4        1        2        6        6 </v>
   <v type="int" >        4        1        2        2        6 </v>
   <v type="int" >        4        1        1        2        6 </v>
   <v type="int" >        4        7        7        7       10 </v>
   <v type="int" >        4        6        7        7        7 </v>
   <v type="int" >        2        6        6        7        7 </v>
   <v type="int" >        2        7        7       10       10 </v>
   <v type="int" >        4        8       10       10       11 </v>
   <v type="int" >        4        7        8       10       10 </v>
   <v type="int" >        4        7        7        8       10 </v>
   <v type="int" >        4        8       10       11       11 </v>
   <v type="int" >        4        8        8       10       11 </v>
   <v type="int" >        4        7        8        8       10 </v>
   <v type="int" >        4        9       11       11       12 </v>
   <v type="int" >        4        8        9       11       11 </v>
   <v type="int" >        4        8        8        9       11 </v>
   <v type="int" >        4        9       11       12       12 </v>
   <v type="int" >        4        9        9       11       12 </v>
   <v type="int" >        4        8        9        9       11 </v>
   <v type="int" >        8        9       12       12       12 </v>
   <v type="int" >        8        9        9       12       12 </v>
   <v type="int" >        8        9        9        9       12 </v>
   <v type="int" >        4        8       11       12       12 </v>
   <v type="int" >        4        8        9       12       12 </v>
   <v type="int" >        4        8        9        9       12 </v>
   <v type="int" >        4        8       11       11       12 </v>
   <v type="int" >        4        8        8       11       12 </v>
   <v type="int" >        4        8        8        9       12 </v>
   <v type="int" >        4        7       10       11       11 </v>
   <v type="int" >        4        7        8       11       11 </v>
   <v type="int" >        4        7        8        8       11 </v>
   <v type="int" >        4        7       10       10       11 </v>
   <v type="int" >        4        7        7       10       11 </v>
   <v type="int" >        4        7        7        8       11 </v>
   <v type="int" >        4        6        7       10       10 </v>
   <v type="int" >        4        6        7        7       10 </v>
   <v type="int" >        4        6        6        7       10 </v>
   <v type="int" >        4       11       11       11       13 </v>
   <v type="int" >        4       10       11       11       11 </v>
   <v type="int" >        2       10       10       11       11 </v>
   <v type="int" >        2       11       11       13       13 </v>
   <v type="int" >        4       12       13       13       14 </v>
   <v type="int" >        4       11       12       13       13 </v>
   <v type="int" >        4       11       11       12       13 </v>
   <v type="int" >        4       12       13       14       14 </v>
   <v type="int" >        4       12       12       13       14 </v>
   <v type="int" >        4       11       12       12       13 </v>
   <v type="int" >        8       12       14       14       14 </v>
   <v type="int" >        8       12       12       14       14 </v>
   <v type="int" >        8       12       12       12       14 </v>
   <v type="int" >        4       11       13       14       14 </v>
   <v type="int" >        4       11       12       14       14 </v>
   <v type="int" >        4       11       12       12       14 </v>
   <v type="int" >        4       11       13       13       14 </v>
   <v type="int" >        4       11       11       13       14 </v>
   <v type="int" >        4       11       11       12       14 </v>
   <v type="int" >        4       10       11       13       13 </v>
   <v type="int" >        4       10       11       11       13 </v>
   <v type="int" >        4       10       10       11       13 </v>
   <v type="int" >       12       14       14       14       15 </v>
   <v type="int" >        4       13       14       14       14 </v>
   <v type="int" >        2       13       13       14       14 </v>
   <v type="int" >       10       14       14       15       15 </v>
   <v type="int" >        8       14       15       15       15 </v>
   <v type="int" >        4       13       14       15       15 </v>
   <v type="int" >        4       13       14       14       15 </v>
   <v type="int" >        4       13       13       14       15 </v>
   <v type="int" >        6       15       15       15       15 </v>
  </varray>
  <i name="volumeweight">      0.00205761 </i>
 </kpoints>
 <parameters>
  <separator name="general" >
   <i type="string" name="SYSTEM">clean (100) Ni surface</i>
   <i type="logical" name="LCOMPAT"> F  </i>
  </separator>
  <separator name="electronic" >
   <i type="string" name="PREC">normal</i>
   <i name="ENMAX">    270.00000000</i>
   <i name="ENAUG">    544.56500000</i>
   <i name="EDIFF">      0.00010000</i>
   <i type="int" name="IALGO">    38</i>
   <i type="int" name="IWAVPR">    10</i>
   <i type="int" name="NBANDS">    48</i>
   <i name="NELECT">     50.00000000</i>
   <i type="int" name="TURBO">     0</i>
   <i type="int" name="IRESTART">     0</i>
   <i type="int" name="NREBOOT">     0</i>
   <i type="int" name="NMIN">     0</i>
   <i name="EREF">      0.00000000</i>
   <separator name="electronic smearing" >
    <i type="int" name="ISMEAR">    -5</i>
    <i name="SIGMA">      0.20000000</i>
    <i name="KSPACING">      0.50000000</i>
    <i type="logical" name="KGAMMA"> T  </i>
   </separator>
   <separator name="electronic projectors" >
    <i type="logical" name="LREAL"> F  </i>
    <v name="ROPT">      0.00000000</v>
    <i type="int" name="LMAXPAW">  -100</i>
    <i type="int" name="LMAXMIX">     2</i>
    <i type="logical" name="NLSPLINE"> F  </i>
   </separator>
   <separator name="electronic startup" >
    <i type="int" name="ISTART">     0</i>
    <i type="int" name="ICHARG">     2</i>
    <i type="int" name="INIWAV">     1</i>
   </separator>
   <separator name="electronic spin" >
    <i type="int" name="ISPIN">     2</i>
    <i type="logical" name="LNONCOLLINEAR"> F  </i>
    <v name="MAGMOM">      1.00000000      1.00000000      1.00000000      1.00000000      1.00000000</v>
    <i name="NUPDOWN">     -1.00000000</i>
    <i type="logical" name="LSORBIT"> F  </i>
    <v name="SAXIS">      0.00000000      0.00000000      1.00000000</v>
    <i type="logical" name="LSPIRAL"> F  </i>
    <v name="QSPIRAL">      0.00000000      0.00000000      0.00000000</v>
    <i type="logical" name="LZEROZ"> F  </i>
   </separator>
   <separator name="electronic exchange-correlation" >
    <i type="logical" name="LASPH"> F  </i>
    <i type="logical" name="LMETAGGA"> F  </i>
   </separator>
   <separator name="electronic convergence" >
    <i type="int" name="NELM">    60</i>
    <i type="int" name="NELMDL">    -5</i>
    <i type="int" name="NELMIN">     2</i>
    <i name="ENINI">    270.00000000</i>
    <separator name="electronic convergence detail" >
     <i type="logical" name="LDIAG"> T  </i>
     <i type="logical" name="LSUBROT"> F  </i>
     <i name="WEIMIN">      0.00000000</i>
     <i name="EBREAK">      0.00000052</i>
     <i name="DEPER">      0.30000000</i>
     <i type="int" name="NRMM">     4</i>
     <i name="TIME">      0.40000000</i>
    </separator>
   </separator>
   <separator name="electronic mixer" >
    <i name="AMIX">      0.40000000</i>
    <i name="BMIX">      1.00000000</i>
    <i name="AMIN">      0.10000000</i>
    <i name="AMIX_MAG">      1.60000000</i>
    <i name="BMIX_MAG">      1.00000000</i>
    <separator name="electronic mixer details" >
     <i type="int" name="IMIX">     4</i>
     <i type="logical" name="MIXFIRST"> F  </i>
     <i type="int" name="MAXMIX">   -45</i>
     <i name="WC">    100.00000000</i>
     <i type="int" name="INIMIX">     1</i>
     <i type="int" name="MIXPRE">     1</i>
     <i type="int" name="MREMOVE">     5</i>
    </separator>
   </separator>
   <separator name="electronic dipolcorrection" >
    <i type="logical" name="LDIPOL"> F  </i>
    <i type="logical" name="LMONO"> F  </i>
    <i type="int" name="IDIPOL">     0</i>
    <i name="EPSILON">      1.00000000</i>
    <v name="DIPOL">   -100.00000000   -100.00000000   -100.00000000</v>
    <i name="EFIELD">      0.00000000</i>
   </separator>
  </separator>
  <separator name="grids" >
   <i type="int" name="NGX">    10</i>
   <i type="int" name="NGY">    10</i>
   <i type="int" name="NGZ">    72</i>
   <i type="int" name="NGXF">    20</i>
   <i type="int" name="NGYF">    20</i>
   <i type="int" name="NGZF">   144</i>
   <i type="logical" name="ADDGRID"> F  </i>
  </separator>
  <separator name="ionic" >
   <i type="int" name="NSW">     0</i>
   <i type="int" name="IBRION">    -1</i>
   <i type="int" name="MDALGO">     0</i>
   <i type="int" name="ISIF">     2</i>
   <i name="PSTRESS">      0.00000000</i>
   <i name="EDIFFG">      0.00100000</i>
   <i type="int" name="NFREE">     0</i>
   <i name="POTIM">      0.50000000</i>
   <i name="SMASS">     -3.00000000</i>
   <i name="SCALEE">      1.00000000</i>
  </separator>
  <separator name="ionic md" >
   <i name="TEBEG">      0.00010000</i>
   <i name="TEEND">      0.00010000</i>
   <i type="int" name="NBLOCK">     1</i>
   <i type="int" name="KBLOCK">     1</i>
   <i type="int" name="NPACO">   256</i>
   <i name="APACO">     16.00000000</i>
  </separator>
  <separator name="symmetry" >
   <i type="int" name="ISYM">     2</i>
   <i name="SYMPREC">      0.00001000</i>
  </separator>
  <separator name="dos" >
   <i type="int" name="LORBIT">    10</i>
   <v name="RWIGS">     -1.00000000</v>
   <i type="int" name="NEDOS">   301</i>
   <i name="EMIN">     10.00000000</i>
   <i name="EMAX">    -10.00000000</i>
   <i name="EFERMI">      0.00000000</i>
  </separator>
  <separator name="writing" >
   <i type="int" name="NWRITE">     2</i>
   <i type="logical" name="LWAVE"> T  </i>
   <i type="logical" name="LDOWNSAMPLE"> F  </i>
   <i type="logical" name="LCHARG"> T  </i>
   <i type="logical" name="LPARD"> F  </i>
   <i type="logical" name="LVTOT"> F  </i>
   <i type="logical" name="LVHAR"> F  </i>
   <i type="logical" name="LELF"> F  </i>
   <i type="logical" name="LOPTICS"> F  </i>
   <v name="STM">      0.00000000      0.00000000      0.00000000      0.00000000      0.00000000      0.00000000      0.00000000</v>
  </separator>
  <separator name="performance" >
   <i type="int" name="NPAR">    16</i>
   <i type="int" name="NSIM">     4</i>
   <i type="int" name="NBLK">    -1</i>
   <i type="logical" name="LPLANE"> T  </i>
   <i type="logical" name="LSCALAPACK"> T  </i>
   <i type="logical" name="LSCAAWARE"> F  </i>
   <i type="logical" name="LSCALU"> F  </i>
   <i type="logical" name="LASYNC"> F  </i>
   <i type="logical" name="LORBITALREAL"> F  </i>
  </separator>
  <separator name="miscellaneous" >
   <i type="int" name="IDIOT">     3</i>
   <i type="int" name="ISPECIAL">     0</i>
   <i type="logical" name="LMUSIC"> F  </i>
   <v name="POMASS">     58.69000000</v>
   <v name="DARWINR">      0.00000000</v>
   <v name="DARWINV">      1.00000000</v>
   <i type="logical" name="LCORR"> T  </i>
  </separator>
  <i type="logical" name="GGA_COMPAT"> T  </i>
  <i type="logical" name="LBERRY"> F  </i>
  <i type="int" name="ICORELEVEL">     0</i>
  <i type="logical" name="LDAU"> F  </i>
  <i type="int" name="I_CONSTRAINED_M">     0</i>
  <separator name="electronic exchange-correlation" >
   <i type="string" name="GGA">--</i>
   <i type="int" name="VOSKOWN">     0</i>
   <i type="logical" name="LHFCALC"> F  </i>
   <i type="string" name="PRECFOCK"></i>
   <i type="logical" name="LSYMGRAD"> F  </i>
   <i type="logical" name="LHFONE"> F  </i>
   <i type="logical" name="LRHFCALC"> F  </i>
   <i type="logical" name="LTHOMAS"> F  </i>
   <i type="logical" name="LMODELHF"> F  </i>
   <i name="ENCUT4O">     -1.00000000</i>
   <i type="int" name="EXXOEP">     0</i>
   <i type="int" name="FOURORBIT">     0</i>
   <i name="AEXX">      0.00000000</i>
   <i name="HFALPHA">      0.00000000</i>
   <i name="MCALPHA">      0.00000000</i>
   <i name="ALDAX">      1.00000000</i>
   <i name="AGGAX">      1.00000000</i>
   <i name="ALDAC">      1.00000000</i>
   <i name="AGGAC">      1.00000000</i>
   <i type="int" name="NKREDX">     1</i>
   <i type="int" name="NKREDY">     1</i>
   <i type="int" name="NKREDZ">     1</i>
   <i type="logical" name="SHIFTRED"> F  </i>
   <i type="logical" name="ODDONLY"> F  </i>
   <i type="logical" name="EVENONLY"> F  </i>
   <i type="int" name="LMAXFOCK">     0</i>
   <i type="int" name="NMAXFOCKAE">     0</i>
   <i type="logical" name="LFOCKAEDFT"> F  </i>
   <i name="HFSCREEN">      0.00000000</i>
   <i name="HFSCREENC">      0.00000000</i>
   <i type="int" name="NBANDSGWLOW">     0</i>
  </separator>
  <separator name="vdW DFT" >
   <i type="logical" name="LUSE_VDW"> F  </i>
   <i name="Zab_VDW">     -0.84910000</i>
   <i name="PARAM1">      0.12340000</i>
   <i name="PARAM2">      1.00000000</i>
   <i name="PARAM3">      0.00000000</i>
  </separator>
  <separator name="model GW" >
   <i type="int" name="MODEL_GW">     0</i>
   <i name="MODEL_EPS0">     13.19609310</i>
   <i name="MODEL_ALPHA">      1.00000000</i>
  </separator>
  <separator name="linear response parameters" >
   <i type="logical" name="LEPSILON"> F  </i>
   <i type="logical" name="LRPA"> F  </i>
   <i type="logical" name="LNABLA"> F  </i>
   <i type="logical" name="LVEL"> F  </i>
   <i type="int" name="KINTER">     0</i>
   <i name="CSHIFT">      0.10000000</i>
   <i name="OMEGAMAX">     -1.00000000</i>
   <i name="DEG_THRESHOLD">      0.00200000</i>
   <i name="RTIME">     -0.10000000</i>
   <i name="WPLASMAI">      0.00000000</i>
   <v name="DFIELD">      0.00000000      0.00000000      0.00000000</v>
   <v name="WPLASMA">      0.00000000      0.00000000      0.00000000      0.00000000      0.00000000      0.00000000      0.00000000      0.00000000      0.00000000</v>
  </separator>
  <separator name="orbital magnetization" >
   <i type="logical" name="NUCIND"> F  </i>
   <v name="MAGPOS">      0.00000000      0.00000000      0.00000000</v>
   <i type="logical" name="LNICSALL"> T  </i>
   <i type="logical" name="ORBITALMAG"> F  </i>
   <i type="logical" name="LMAGBLOCH"> F  </i>
   <i type="logical" name="LCHIMAG"> F  </i>
   <i type="logical" name="LGAUGE"> T  </i>
   <i type="int" name="MAGATOM">     0</i>
   <v name="MAGDIPOL">      0.00000000      0.00000000      0.00000000</v>
   <v name="AVECCONST">      0.00000000      0.00000000      0.00000000</v>
  </separator>
  <separator name="response functions" >
   <i type="logical" name="LADDER"> F  </i>
   <i type="logical" name="LRPAFORCE"> F  </i>
   <i type="logical" name="LFXC"> F  </i>
   <i type="logical" name="LHARTREE"> T  </i>
   <i type="int" name="IBSE">     0</i>
   <v type="int" name="KPOINT">    -1     0     0     0</v>
   <i type="logical" name="LTCTE"> F  </i>
   <i type="logical" name="LTETE"> F  </i>
   <i type="logical" name="LTRIPLET"> F  </i>
   <i type="logical" name="LFXCEPS"> F  </i>
   <i type="logical" name="LFXHEG"> F  </i>
   <i type="int" name="NATURALO">     2</i>
   <i type="logical" name="L2ORDER"> F  </i>
   <i type="logical" name="LMP2LT"> F  </i>
   <i type="logical" name="LUSEW"> F  </i>
   <i name="ENCUTGW">     -2.00000000</i>
   <i name="ENCUTGWSOFT">     -2.00000000</i>
   <i name="ENCUTLF">     -1.00000000</i>
   <i type="int" name="LMAXMP2">    -1</i>
   <i name="SCISSOR">      0.00000000</i>
   <i type="int" name="NOMEGA">     0</i>
   <i type="int" name="NOMEGAR">     0</i>
   <i type="int" name="NBANDSGW">    -1</i>
   <i type="int" name="NBANDSO">    -1</i>
   <i type="int" name="NBANDSV">    -1</i>
   <i type="int" name="NELM">     1</i>
   <i type="int" name="NELMHF">     1</i>
   <i type="int" name="DIM">     3</i>
   <i type="int" name="ANTIRES">     0</i>
   <i name="OMEGAMAX">    -30.00000000</i>
   <i name="OMEGAMIN">    -30.00000000</i>
   <i name="OMEGATL">   -200.00000000</i>
   <i type="int" name="OMEGAGRID">   140</i>
   <i name="CSHIFT">     -0.10000000</i>
   <i type="logical" name="SELFENERGY"> F  </i>
   <i type="logical" name="LSPECTRAL"> F  </i>
   <i type="logical" name="LSPECTRALGW"> F  </i>
   <i type="logical" name="LSINGLES"> F  </i>
   <i type="logical" name="LFERMIGW"> F  </i>
   <i type="logical" name="ODDONLYGW"> F  </i>
   <i type="logical" name="EVENONLYGW"> F  </i>
   <i type="int" name="NKREDLFX">     1</i>
   <i type="int" name="NKREDLFY">     1</i>
   <i type="int" name="NKREDLFZ">     1</i>
   <i type="int" name="MAXMEM">  2800</i>
   <i type="int" name="TELESCOPE">     0</i>
   <i type="int" name="TAUPAR">     1</i>
   <i type="int" name="OMEGAPAR">    -1</i>
   <i name="LAMBDA">      1.00000000</i>
  </separator>
  <separator name="External order field" >
   <i name="OFIELD_KAPPA">      0.00000000</i>
   <v name="OFIELD_K">      0.00000000      0.00000000      0.00000000</v>
   <i name="OFIELD_Q6_NEAR">      0.00000000</i>
   <i name="OFIELD_Q6_FAR">      0.00000000</i>
   <i name="OFIELD_A">      0.00000000</i>
  </separator>
 </parameters>
 <atominfo>
  <atoms>       5 </atoms>
  <types>       1 </types>
  <array name="atoms" >
   <dimension dim="1">ion</dimension>
   <field type="string">element</field>
   <field type="int">atomtype</field>
   <set>
    <rc><c>Ni</c><c>   1</c></rc>
    <rc><c>Ni</c><c>   1</c></rc>
    <rc><c>Ni</c><c>   1</c></rc>
    <rc><c>Ni</c><c>   1</c></rc>
    <rc><c>Ni</c><c>   1</c></rc>
   </set>
  </array>
  <array name="atomtypes" >
   <dimension dim="1">type</dimension>
   <field type="int">atomspertype</field>
   <field type="string">element</field>
   <field>mass</field>
   <field>valence</field>
   <field type="string">pseudopotential</field>
   <set>
    <rc><c>   5</c><c>Ni</c><c>     58.69000000</c><c>     10.00000000</c><c> PAW_PBE Ni 06Sep2000                   </c></rc>
   </set>
  </array>
 </atominfo>
 <structure name="initialpos" >
  <crystal>
   <varray name="basis" >
    <v>       1.76500000       1.76500000       0.00000000 </v>
    <v>      -1.76500000       1.76500000       0.00000000 </v>
    <v>       0.00000000       0.00000000      17.65000000 </v>
   </varray>
   <i name="volume">    109.96744250 </i>
   <varray name="rec_basis" >
    <v>       0.28328612       0.28328612       0.00000000 </v>
    <v>      -0.28328612       0.28328612       0.00000000 </v>
    <v>       0.00000000       0.00000000       0.05665722 </v>
   </varray>
  </crystal>
  <varray name="positions" >
   <v>       0.00000000       0.00000000       0.00000000 </v>
   <v>       0.50000000       0.50000000       0.10000000 </v>
   <v>       0.00000000       0.00000000       0.20000000 </v>
   <v>       0.50000000       0.50000000       0.30042453 </v>
   <v>       0.00000000       0.00000000       0.39594145 </v>
  </varray>
  <varray name="selective"  type="logical" >
   <v type="logical" >  F  F  F </v>
   <v type="logical" >  F  F  F </v>
   <v type="logical" >  F  F  F </v>
   <v type="logical" >  T  T  T </v>
   <v type="logical" >  T  T  T </v>
  </varray>
  <nose>
   <v>      -3.00000000       0.00000000       0.00010000       0.00010000 </v>
  </nose>
 </structure>
 <calculation>
  <scstep>
   <time name="dav">    0.62    0.62</time>
   <time name="total">    0.67    0.67</time>
   <energy>
    <i name="alphaZ">    229.19704166 </i>
    <i name="ewald">   9425.48118467 </i>
    <i name="hartreedc"> -14820.59184117 </i>
    <i name="XCdc">    157.00662078 </i>
    <i name="pawpsdc">   4352.56531539 </i>
    <i name="pawaedc">  -4686.60891765 </i>
    <i name="eentropy">      0.00000000 </i>
    <i name="bandstr">    177.31304003 </i>
    <i name="atom">   5389.32339188 </i>
    <i name="e_fr_energy">    223.68583559 </i>
    <i name="e_wo_entrp">    223.68583559 </i>
    <i name="e_0_energy">    223.68583559 </i>
   </energy>
  </scstep>
  <scstep>
   <time name="dav">    0.68    0.68</time>
   <time name="total">    0.70    0.70</time>
   <energy>
    <i name="e_fr_energy">    -18.66583599 </i>
    <i name="e_wo_entrp">    -18.66583599 </i>
    <i name="e_0_energy">    -18.66583599 </i>
   </energy>
  </scstep>
  <scstep>
   <time name="dav">    0.76    0.76</time>
   <time name="total">    0.78    0.78</time>
   <energy>
    <i name="e_fr_energy">    -30.58216389 </i>
    <i name="e_wo_entrp">    -30.58216389 </i>
    <i name="e_0_energy">    -30.58216389 </i>
   </energy>
  </scstep>
  <scstep>
   <time name="dav">    0.73    0.73</time>
   <time name="total">    0.75    0.75</time>
   <energy>
    <i name="e_fr_energy">    -30.65149447 </i>
    <i name="e_wo_entrp">    -30.65149447 </i>
    <i name="e_0_energy">    -30.65149447 </i>
   </energy>
  </scstep>
  <scstep>
   <time name="dav">    0.77    0.77</time>
   <time name="total">    0.80    0.81</time>
   <energy>
    <i name="e_fr_energy">    -30.65170612 </i>
    <i name="e_wo_entrp">    -30.65170612 </i>
    <i name="e_0_energy">    -30.65170612 </i>
   </energy>
  </scstep>
  <scstep>
   <time name="dav">    0.81    0.81</time>
   <time name="total">    0.86    0.86</time>
   <energy>
    <i name="e_fr_energy">    -31.12275607 </i>
    <i name="e_wo_entrp">    -31.12275607 </i>
    <i name="e_0_energy">    -31.12275607 </i>
   </energy>
  </scstep>
  <scstep>
   <time name="dav">    0.83    0.83</time>
   <time name="total">    0.88    0.89</time>
   <energy>
    <i name="e_fr_energy">    -33.23194583 </i>
    <i name="e_wo_entrp">    -33.23194583 </i>
    <i name="e_0_energy">    -33.23194583 </i>
   </energy>
  </scstep>
  <scstep>
   <time name="dav">    0.90    0.90</time>
   <time name="total">    0.96    0.96</time>
   <energy>
    <i name="e_fr_energy">    -33.09203725 </i>
    <i name="e_wo_entrp">    -33.09203725 </i>
    <i name="e_0_energy">    -33.09203725 </i>
   </energy>
  </scstep>
  <scstep>
   <time name="dav">    0.85    0.85</time>
   <time name="total">    0.91    0.91</time>
   <energy>
    <i name="e_fr_energy">    -28.41514711 </i>
    <i name="e_wo_entrp">    -28.41514711 </i>
    <i name="e_0_energy">    -28.41514711 </i>
   </energy>
  </scstep>
  <scstep>
   <time name="dav">    0.75    0.75</time>
   <time name="total">    0.80    0.80</time>
   <energy>
    <i name="e_fr_energy">    -26.55683012 </i>
    <i name="e_wo_entrp">    -26.55683012 </i>
    <i name="e_0_energy">    -26.55683012 </i>
   </energy>
  </scstep>
  <scstep>
   <time name="dav">    0.75    0.75</time>
   <time name="total">    0.80    0.80</time>
   <energy>
    <i name="e_fr_energy">    -26.35131897 </i>
    <i name="e_wo_entrp">    -26.35131897 </i>
    <i name="e_0_energy">    -26.35131897 </i>
   </energy>
  </scstep>
  <scstep>
   <time name="dav">    0.71    0.71</time>
   <time name="total">    0.76    0.76</time>
   <energy>
    <i name="e_fr_energy">    -26.23774013 </i>
    <i name="e_wo_entrp">    -26.23774013 </i>
    <i name="e_0_energy">    -26.23774013 </i>
   </energy>
  </scstep>
  <scstep>
   <time name="dav">    0.65    0.65</time>
   <time name="total">    0.71    0.71</time>
   <energy>
    <i name="e_fr_energy">    -25.77675397 </i>
    <i name="e_wo_entrp">    -25.77675397 </i>
    <i name="e_0_energy">    -25.77675397 </i>
   </energy>
  </scstep>
  <scstep>
   <time name="dav">    0.90    0.90</time>
   <time name="total">    0.96    0.96</time>
   <energy>
    <i name="e_fr_energy">    -25.79329871 </i>
    <i name="e_wo_entrp">    -25.79329871 </i>
    <i name="e_0_energy">    -25.79329871 </i>
   </energy>
  </scstep>
  <scstep>
   <time name="dav">    0.67    0.67</time>
   <time name="total">    0.73    0.73</time>
   <energy>
    <i name="e_fr_energy">    -25.90204730 </i>
    <i name="e_wo_entrp">    -25.90204730 </i>
    <i name="e_0_energy">    -25.90204730 </i>
   </energy>
  </scstep>
  <scstep>
   <time name="dav">    0.70    0.70</time>
   <time name="total">    0.76    0.76</time>
   <energy>
    <i name="e_fr_energy">    -25.99030296 </i>
    <i name="e_wo_entrp">    -25.99030296 </i>
    <i name="e_0_energy">    -25.99030296 </i>
   </energy>
  </scstep>
  <scstep>
   <time name="dav">    0.78    0.78</time>
   <time name="total">    0.83    0.83</time>
   <energy>
    <i name="e_fr_energy">    -26.04934777 </i>
    <i name="e_wo_entrp">    -26.04934777 </i>
    <i name="e_0_energy">    -26.04934777 </i>
   </energy>
  </scstep>
  <scstep>
   <time name="dav">    0.75    0.75</time>
   <time name="total">    0.80    0.80</time>
   <energy>
    <i name="e_fr_energy">    -26.06083690 </i>
    <i name="e_wo_entrp">    -26.06083690 </i>
    <i name="e_0_energy">    -26.06083690 </i>
   </energy>
  </scstep>
  <scstep>
   <time name="dav">    0.82    0.82</time>
   <time name="total">    0.88    0.88</time>
   <energy>
    <i name="e_fr_energy">    -26.06370161 </i>
    <i name="e_wo_entrp">    -26.06370161 </i>
    <i name="e_0_energy">    -26.06370161 </i>
   </energy>
  </scstep>
  <scstep>
   <time name="dav">    0.73    0.73</time>
   <time name="total">    0.78    0.78</time>
   <energy>
    <i name="e_fr_energy">    -26.10050363 </i>
    <i name="e_wo_entrp">    -26.10050363 </i>
    <i name="e_0_energy">    -26.10050363 </i>
   </energy>
  </scstep>
  <scstep>
   <time name="dav">    0.71    0.72</time>
   <time name="total">    0.77    0.77</time>
   <energy>
    <i name="e_fr_energy">    -26.10726682 </i>
    <i name="e_wo_entrp">    -26.10726682 </i>
    <i name="e_0_energy">    -26.10726682 </i>
   </energy>
  </scstep>
  <scstep>
   <time name="dav">    0.84    0.85</time>
   <time name="total">    0.90    0.90</time>
   <energy>
    <i name="e_fr_energy">    -26.10876124 </i>
    <i name="e_wo_entrp">    -26.10876124 </i>
    <i name="e_0_energy">    -26.10876124 </i>
   </energy>
  </scstep>
  <scstep>
   <time name="dav">    0.69    0.69</time>
   <time name="total">    0.75    0.75</time>
   <energy>
    <i name="e_fr_energy">    -26.10741844 </i>
    <i name="e_wo_entrp">    -26.10741844 </i>
    <i name="e_0_energy">    -26.10741844 </i>
   </energy>
  </scstep>
  <scstep>
   <time name="dav">    0.70    0.70</time>
   <time name="total">    0.76    0.76</time>
   <energy>
    <i name="e_fr_energy">    -26.10682895 </i>
    <i name="e_wo_entrp">    -26.10682895 </i>
    <i name="e_0_energy">    -26.10682895 </i>
   </energy>
  </scstep>
  <scstep>
   <time name="dav">    0.64    0.64</time>
   <time name="total">    0.69    0.69</time>
   <energy>
    <i name="e_fr_energy">    -26.10670478 </i>
    <i name="e_wo_entrp">    -26.10670478 </i>
    <i name="e_0_energy">    -26.10670478 </i>
   </energy>
  </scstep>
  <scstep>
   <time name="dav">    0.69    0.69</time>
   <time name="total">    0.74    0.74</time>
   <energy>
    <i name="e_fr_energy">    -26.10705971 </i>
    <i name="e_wo_entrp">    -26.10705971 </i>
    <i name="e_0_energy">    -26.10705971 </i>
   </energy>
  </scstep>
  <scstep>
   <time name="dav">    0.62    0.62</time>
   <time name="total">    0.67    0.67</time>
   <energy>
    <i name="e_fr_energy">    -26.10759733 </i>
    <i name="e_wo_entrp">    -26.10759733 </i>
    <i name="e_0_energy">    -26.10759733 </i>
   </energy>
  </scstep>
  <scstep>
   <time name="dav">    0.65    0.65</time>
   <time name="total">    0.70    0.70</time>
   <energy>
    <i name="e_fr_energy">    -26.10800035 </i>
    <i name="e_wo_entrp">    -26.10800035 </i>
    <i name="e_0_energy">    -26.10800035 </i>
   </energy>
  </scstep>
  <scstep>
   <time name="dav">    0.65    0.65</time>
   <time name="total">    0.70    0.70</time>
   <energy>
    <i name="e_fr_energy">    -26.10823681 </i>
    <i name="e_wo_entrp">    -26.10823681 </i>
    <i name="e_0_energy">    -26.10823681 </i>
   </energy>
  </scstep>
  <scstep>
   <time name="dav">    0.62    0.62</time>
   <time name="total">    0.68    0.68</time>
   <energy>
    <i name="e_fr_energy">    -26.10854290 </i>
    <i name="e_wo_entrp">    -26.10854290 </i>
    <i name="e_0_energy">    -26.10854290 </i>
   </energy>
  </scstep>
  <scstep>
   <time name="dav">    0.64    0.64</time>
   <time name="total">    0.70    0.70</time>
   <energy>
    <i name="e_fr_energy">    -26.10869089 </i>
    <i name="e_wo_entrp">    -26.10869089 </i>
    <i name="e_0_energy">    -26.10869089 </i>
   </energy>
  </scstep>
  <scstep>
   <time name="dav">    0.62    0.62</time>
   <time name="total">    0.66    0.66</time>
   <energy>
    <i name="alphaZ">    229.19704166 </i>
    <i name="ewald">   9425.48118467 </i>
    <i name="hartreedc"> -14776.42199577 </i>
    <i name="XCdc">    152.31560201 </i>
    <i name="pawpsdc">   4537.84445423 </i>
    <i name="pawaedc">  -4878.69230072 </i>
    <i name="eentropy">      0.00000000 </i>
    <i name="bandstr">   -105.15611542 </i>
    <i name="atom">   5389.32339188 </i>
    <i name="e_fr_energy">    -26.10873746 </i>
    <i name="e_wo_entrp">    -26.10873746 </i>
    <i name="e_0_energy">    -26.10873746 </i>
   </energy>
  </scstep>
  <structure>
   <crystal>
    <varray name="basis" >
     <v>       1.76500000       1.76500000       0.00000000 </v>
     <v>      -1.76500000       1.76500000       0.00000000 </v>
     <v>       0.00000000       0.00000000      17.65000000 </v>
    </varray>
    <i name="volume">    109.96744250 </i>
    <varray name="rec_basis" >
     <v>       0.28328612       0.28328612       0.00000000 </v>
     <v>      -0.28328612       0.28328612       0.00000000 </v>
     <v>       0.00000000       0.00000000       0.05665722 </v>
    </varray>
   </crystal>
   <varray name="positions" >
    <v>       0.00000000       0.00000000       0.00000000 </v>
    <v>       0.50000000       0.50000000       0.10000000 </v>
    <v>       0.00000000       0.00000000       0.20000000 </v>
    <v>       0.50000000       0.50000000       0.30042453 </v>
    <v>       0.00000000       0.00000000       0.39594145 </v>
   </varray>
  </structure>
  <varray name="forces" >
   <v>       0.00000000       0.00000000       0.38325539 </v>
   <v>      -0.00000000      -0.00000000      -0.39459985 </v>
   <v>      -0.00000000      -0.00000000      -0.00294499 </v>
   <v>       0.00000000       0.00000000      -0.00973997 </v>
   <v>      -0.00000000      -0.00000000       0.02402943 </v>
  </varray>
  <varray name="stress" >
   <v>     -51.44955856       0.00000000      -0.00000000 </v>
   <v>       0.00000000     -51.44955856      -0.00000000 </v>
   <v>       0.00000000       0.00000000     -29.05839501 </v>
  </varray>
  <energy>
   <i name="e_fr_energy">    -26.10873746 </i>
   <i name="e_wo_entrp">    -26.10873746 </i>
   <i name="e_0_energy">      0.00000000 </i>
  </energy>
  <time name="totalsc">   25.57   25.63</time>
  <eigenvalues>
   <array>
    <dimension dim="1">band</dimension>
    <dimension dim="2">kpoint</dimension>
    <dimension dim="3">spin</dimension>
    <field>eigene</field>
    <field>occ</field>
    <set>
     <set comment="spin 1">
      <set comment="kpoint 1">
       <r>   -8.4981    1.0000 </r>
       <r>   -7.3189    1.0000 </r>
       <r>   -5.6434    1.0000 </r>
       <r>   -4.5059    1.0000 </r>
       <r>   -4.4272    1.0000 </r>
       <r>   -3.9871    1.0000 </r>
       <r>   -3.6303    1.0000 </r>
       <r>   -3.1177    1.0000 </r>
       <r>   -2.6417    1.0000 </r>
       <r>   -2.4058    1.0000 </r>
       <r>   -2.2739    1.0000 </r>
       <r>   -2.2739    1.0000 </r>
       <r>   -1.9076    1.0000 </r>
       <r>   -1.9076    1.0000 </r>
       <r>   -1.7192    1.0000 </r>
       <r>   -1.4475    1.0000 </r>
       <r>   -1.3142    1.0000 </r>
       <r>   -1.3142    1.0000 </r>
       <r>   -1.2606    1.0000 </r>
       <r>   -1.2182    1.0000 </r>
       <r>   -1.1372    1.0000 </r>
       <r>   -1.0637    1.0000 </r>
       <r>   -0.7945    1.0000 </r>
       <r>   -0.7945    1.0000 </r>
       <r>   -0.7912    1.0000 </r>
       <r>   -0.6255    1.0000 </r>
       <r>   -0.5511    1.0000 </r>
       <r>   -0.5188    1.0000 </r>
       <r>   -0.5188    1.0163 </r>
       <r>    0.5988    0.0000 </r>
       <r>    1.9525    0.0000 </r>
       <r>    4.5160    0.0000 </r>
       <r>    5.8576    0.0000 </r>
       <r>    7.7377    0.0000 </r>
       <r>   10.8659    0.0000 </r>
       <r>   11.5331    0.0000 </r>
       <r>   15.3713    0.0000 </r>
       <r>   15.3713    0.0000 </r>
       <r>   15.6990    0.0000 </r>
       <r>   16.2964    0.0000 </r>
       <r>   16.9362    0.0000 </r>
       <r>   16.9362    0.0000 </r>
       <r>   19.2733    0.0000 </r>
       <r>   19.2733    0.0000 </r>
       <r>   19.8186    0.0000 </r>
       <r>   20.3783    0.0000 </r>
       <r>   21.2591    0.0000 </r>
       <r>   21.2789    0.0000 </r>
      </set>
      <set comment="kpoint 2">
       <r>   -8.1864    1.0000 </r>
       <r>   -7.0270    1.0000 </r>
       <r>   -5.3923    1.0000 </r>
       <r>   -4.3123    1.0000 </r>
       <r>   -4.2420    1.0000 </r>
       <r>   -3.8876    1.0000 </r>
       <r>   -3.5452    1.0000 </r>
       <r>   -3.0658    1.0000 </r>
       <r>   -2.6342    1.0000 </r>
       <r>   -2.3374    1.0000 </r>
       <r>   -2.2961    1.0000 </r>
       <r>   -2.2332    1.0000 </r>
       <r>   -2.1153    1.0000 </r>
       <r>   -1.9317    1.0000 </r>
       <r>   -1.8388    1.0000 </r>
       <r>   -1.5172    1.0000 </r>
       <r>   -1.4778    1.0000 </r>
       <r>   -1.3848    1.0000 </r>
       <r>   -1.2794    1.0000 </r>
       <r>   -1.2428    1.0000 </r>
       <r>   -1.1026    1.0000 </r>
       <r>   -1.0239    1.0000 </r>
       <r>   -1.0204    1.0000 </r>
       <r>   -0.9925    1.0000 </r>
       <r>   -0.7138    1.0000 </r>
       <r>   -0.7063    1.0000 </r>
       <r>   -0.5791    1.0000 </r>
       <r>   -0.4983    1.0000 </r>
       <r>   -0.4238    0.9268 </r>
       <r>    1.2014    0.0000 </r>
       <r>    2.6473    0.0000 </r>
       <r>    4.8142    0.0000 </r>
       <r>    6.1940    0.0000 </r>
       <r>    7.9872    0.0000 </r>
       <r>   11.1415    0.0000 </r>
       <r>   11.6837    0.0000 </r>
       <r>   12.7509    0.0000 </r>
       <r>   13.9643    0.0000 </r>
       <r>   15.7265    0.0000 </r>
       <r>   15.8346    0.0000 </r>
       <r>   16.1149    0.0000 </r>
       <r>   16.6024    0.0000 </r>
       <r>   17.3622    0.0000 </r>
       <r>   17.9451    0.0000 </r>
       <r>   19.6586    0.0000 </r>
       <r>   20.0581    0.0000 </r>
       <r>   20.9765    0.0000 </r>
       <r>   21.2667    0.0000 </r>
      </set>
      <set comment="kpoint 3">
       <r>   -7.2953    1.0000 </r>
       <r>   -6.2296    1.0000 </r>
       <r>   -4.8191    1.0000 </r>
       <r>   -3.9441    1.0000 </r>
       <r>   -3.8499    1.0000 </r>
       <r>   -3.5985    1.0000 </r>
       <r>   -3.2071    1.0000 </r>
       <r>   -2.8100    1.0000 </r>
       <r>   -2.6663    1.0000 </r>
       <r>   -2.2895    1.0000 </r>
       <r>   -2.2649    1.0000 </r>
       <r>   -2.2126    1.0000 </r>
       <r>   -2.1835    1.0000 </r>
       <r>   -2.1465    1.0000 </r>
       <r>   -2.0178    1.0000 </r>
       <r>   -1.7942    1.0000 </r>
       <r>   -1.7333    1.0000 </r>
       <r>   -1.6685    1.0000 </r>
       <r>   -1.5032    1.0000 </r>
       <r>   -1.1856    1.0000 </r>
       <r>   -1.1579    1.0000 </r>
       <r>   -1.1264    1.0000 </r>
       <r>   -1.1216    1.0000 </r>
       <r>   -0.9093    1.0000 </r>
       <r>   -0.8637    1.0000 </r>
       <r>   -0.7120    1.0000 </r>
       <r>   -0.5558    1.0000 </r>
       <r>   -0.5370    1.0202 </r>
       <r>    0.4098   -0.0087 </r>
       <r>    2.3582    0.0000 </r>
       <r>    4.0767    0.0000 </r>
       <r>    5.6920    0.0000 </r>
       <r>    7.1957    0.0000 </r>
       <r>    8.4498    0.0000 </r>
       <r>    9.0668    0.0000 </r>
       <r>    9.9915    0.0000 </r>
       <r>   11.7019    0.0000 </r>
       <r>   12.0221    0.0000 </r>
       <r>   12.5030    0.0000 </r>
       <r>   13.8061    0.0000 </r>
       <r>   15.9431    0.0000 </r>
       <r>   16.8682    0.0000 </r>
       <r>   17.1567    0.0000 </r>
       <r>   17.3252    0.0000 </r>
       <r>   17.8568    0.0000 </r>
       <r>   18.5845    0.0000 </r>
       <r>   18.9973    0.0000 </r>
       <r>   20.7683    0.0000 </r>
      </set>
      <set comment="kpoint 4">
       <r>   -5.9971    1.0000 </r>
       <r>   -5.2529    1.0000 </r>
       <r>   -4.4593    1.0000 </r>
       <r>   -3.8606    1.0000 </r>
       <r>   -3.5674    1.0000 </r>
       <r>   -3.1848    1.0000 </r>
       <r>   -2.7016    1.0000 </r>
       <r>   -2.6770    1.0000 </r>
       <r>   -2.3888    1.0000 </r>
       <r>   -2.3463    1.0000 </r>
       <r>   -2.2773    1.0000 </r>
       <r>   -2.1626    1.0000 </r>
       <r>   -2.1509    1.0000 </r>
       <r>   -2.0924    1.0000 </r>
       <r>   -2.0350    1.0000 </r>
       <r>   -1.8740    1.0000 </r>
       <r>   -1.8024    1.0000 </r>
       <r>   -1.7641    1.0000 </r>
       <r>   -1.7099    1.0000 </r>
       <r>   -1.3532    1.0000 </r>
       <r>   -1.2527    1.0000 </r>
       <r>   -0.8860    1.0000 </r>
       <r>   -0.8794    1.0000 </r>
       <r>   -0.7156    1.0000 </r>
       <r>   -0.7147    1.0000 </r>
       <r>   -0.6310    1.0518 </r>
       <r>   -0.5603    1.0389 </r>
       <r>   -0.4972    0.9479 </r>
       <r>    1.3741    0.0000 </r>
       <r>    3.5336    0.0000 </r>
       <r>    5.3787    0.0000 </r>
       <r>    5.4982    0.0000 </r>
       <r>    6.9168    0.0000 </r>
       <r>    7.2032    0.0000 </r>
       <r>    8.2288    0.0000 </r>
       <r>    8.7755    0.0000 </r>
       <r>   10.0807    0.0000 </r>
       <r>   10.2676    0.0000 </r>
       <r>   12.2779    0.0000 </r>
       <r>   13.3933    0.0000 </r>
       <r>   13.7003    0.0000 </r>
       <r>   14.2693    0.0000 </r>
       <r>   15.1749    0.0000 </r>
       <r>   17.1537    0.0000 </r>
       <r>   17.5115    0.0000 </r>
       <r>   18.3226    0.0000 </r>
       <r>   18.5759    0.0000 </r>
       <r>   19.1834    0.0000 </r>
      </set>
      <set comment="kpoint 5">
       <r>   -4.8005    1.0000 </r>
       <r>   -4.6874    1.0000 </r>
       <r>   -4.3771    1.0000 </r>
       <r>   -3.9470    1.0000 </r>
       <r>   -3.5974    1.0000 </r>
       <r>   -2.7788    1.0000 </r>
       <r>   -2.7355    1.0000 </r>
       <r>   -2.4794    1.0000 </r>
       <r>   -2.4215    1.0000 </r>
       <r>   -2.3087    1.0000 </r>
       <r>   -2.2649    1.0000 </r>
       <r>   -2.2495    1.0000 </r>
       <r>   -2.2045    1.0000 </r>
       <r>   -2.1193    1.0000 </r>
       <r>   -1.9344    1.0000 </r>
       <r>   -1.9281    1.0000 </r>
       <r>   -1.9092    1.0000 </r>
       <r>   -1.5068    1.0000 </r>
       <r>   -1.2647    1.0000 </r>
       <r>   -1.1905    1.0000 </r>
       <r>   -0.8964    1.0000 </r>
       <r>   -0.7907    1.0000 </r>
       <r>   -0.7723    1.0000 </r>
       <r>   -0.6412    1.0000 </r>
       <r>   -0.5948    1.0000 </r>
       <r>   -0.0335    0.5691 </r>
       <r>    0.0137    0.3352 </r>
       <r>    0.2848    0.0329 </r>
       <r>    1.5540    0.0000 </r>
       <r>    1.9959    0.0000 </r>
       <r>    4.5651    0.0000 </r>
       <r>    4.7380    0.0000 </r>
       <r>    6.8230    0.0000 </r>
       <r>    7.1566    0.0000 </r>
       <r>    8.4931    0.0000 </r>
       <r>    9.0189    0.0000 </r>
       <r>    9.5248    0.0000 </r>
       <r>   10.8677    0.0000 </r>
       <r>   11.2939    0.0000 </r>
       <r>   11.8442    0.0000 </r>
       <r>   12.0030    0.0000 </r>
       <r>   13.9355    0.0000 </r>
       <r>   14.4300    0.0000 </r>
       <r>   15.4538    0.0000 </r>
       <r>   15.5545    0.0000 </r>
       <r>   18.0455    0.0000 </r>
       <r>   18.0695    0.0000 </r>
       <r>   20.2067    0.0000 </r>
      </set>
      <set comment="kpoint 6">
       <r>   -7.8793    1.0000 </r>
       <r>   -6.7388    1.0000 </r>
       <r>   -5.1423    1.0000 </r>
       <r>   -4.1301    1.0000 </r>
       <r>   -4.0481    1.0000 </r>
       <r>   -3.7853    1.0000 </r>
       <r>   -3.4727    1.0000 </r>
       <r>   -3.0399    1.0000 </r>
       <r>   -2.6839    1.0000 </r>
       <r>   -2.2718    1.0000 </r>
       <r>   -2.2631    1.0000 </r>
       <r>   -2.2266    1.0000 </r>
       <r>   -2.1632    1.0000 </r>
       <r>   -2.1127    1.0000 </r>
       <r>   -1.9270    1.0000 </r>
       <r>   -1.6483    1.0000 </r>
       <r>   -1.4361    1.0000 </r>
       <r>   -1.3976    1.0000 </r>
       <r>   -1.3633    1.0000 </r>
       <r>   -1.3468    1.0000 </r>
       <r>   -1.2849    1.0000 </r>
       <r>   -1.1351    1.0000 </r>
       <r>   -1.0138    1.0000 </r>
       <r>   -0.8450    1.0000 </r>
       <r>   -0.8206    1.0000 </r>
       <r>   -0.7649    1.0000 </r>
       <r>   -0.6817    1.0000 </r>
       <r>   -0.5280    1.0135 </r>
       <r>    0.0341    0.3596 </r>
       <r>    1.6748    0.0000 </r>
       <r>    3.1881    0.0000 </r>
       <r>    5.1116    0.0000 </r>
       <r>    6.5296    0.0000 </r>
       <r>    8.2378    0.0000 </r>
       <r>   11.4202    0.0000 </r>
       <r>   11.8928    0.0000 </r>
       <r>   12.6404    0.0000 </r>
       <r>   13.6174    0.0000 </r>
       <r>   13.9290    0.0000 </r>
       <r>   14.7018    0.0000 </r>
       <r>   15.7799    0.0000 </r>
       <r>   16.1307    0.0000 </r>
       <r>   16.7435    0.0000 </r>
       <r>   16.9728    0.0000 </r>
       <r>   17.9159    0.0000 </r>
       <r>   18.5697    0.0000 </r>
       <r>   20.1069    0.0000 </r>
       <r>   20.6130    0.0000 </r>
      </set>
      <set comment="kpoint 7">
       <r>   -7.0061    1.0000 </r>
       <r>   -5.9558    1.0000 </r>
       <r>   -4.5791    1.0000 </r>
       <r>   -3.7621    1.0000 </r>
       <r>   -3.6753    1.0000 </r>
       <r>   -3.5070    1.0000 </r>
       <r>   -3.1762    1.0000 </r>
       <r>   -2.8887    1.0000 </r>
       <r>   -2.8086    1.0000 </r>
       <r>   -2.4835    1.0000 </r>
       <r>   -2.3190    1.0000 </r>
       <r>   -2.1691    1.0000 </r>
       <r>   -2.1411    1.0000 </r>
       <r>   -2.1149    1.0000 </r>
       <r>   -1.9785    1.0000 </r>
       <r>   -1.9064    1.0000 </r>
       <r>   -1.7909    1.0000 </r>
       <r>   -1.6339    1.0000 </r>
       <r>   -1.4447    1.0000 </r>
       <r>   -1.3764    1.0000 </r>
       <r>   -1.2788    1.0000 </r>
       <r>   -1.0716    1.0000 </r>
       <r>   -1.0470    1.0000 </r>
       <r>   -0.9912    1.0000 </r>
       <r>   -0.8761    1.0000 </r>
       <r>   -0.7357    1.0000 </r>
       <r>   -0.5595    1.0000 </r>
       <r>   -0.3861    0.9609 </r>
       <r>    0.8291   -0.0302 </r>
       <r>    2.7413    0.0000 </r>
       <r>    4.4691    0.0000 </r>
       <r>    5.9888    0.0000 </r>
       <r>    7.5262    0.0000 </r>
       <r>    8.7485    0.0000 </r>
       <r>    9.2920    0.0000 </r>
       <r>   10.2546    0.0000 </r>
       <r>   11.9625    0.0000 </r>
       <r>   12.2934    0.0000 </r>
       <r>   12.6750    0.0000 </r>
       <r>   14.0604    0.0000 </r>
       <r>   14.3136    0.0000 </r>
       <r>   15.3632    0.0000 </r>
       <r>   16.2025    0.0000 </r>
       <r>   16.9096    0.0000 </r>
       <r>   17.3863    0.0000 </r>
       <r>   17.7103    0.0000 </r>
       <r>   18.1123    0.0000 </r>
       <r>   19.1134    0.0000 </r>
      </set>
      <set comment="kpoint 8">
       <r>   -5.7515    1.0000 </r>
       <r>   -5.0141    1.0000 </r>
       <r>   -4.2613    1.0000 </r>
       <r>   -3.6961    1.0000 </r>
       <r>   -3.3721    1.0000 </r>
       <r>   -3.2652    1.0000 </r>
       <r>   -2.8822    1.0000 </r>
       <r>   -2.7828    1.0000 </r>
       <r>   -2.5946    1.0000 </r>
       <r>   -2.5280    1.0000 </r>
       <r>   -2.3365    1.0000 </r>
       <r>   -2.2522    1.0000 </r>
       <r>   -2.1892    1.0000 </r>
       <r>   -2.0117    1.0000 </r>
       <r>   -1.9671    1.0000 </r>
       <r>   -1.8842    1.0000 </r>
       <r>   -1.8141    1.0000 </r>
       <r>   -1.7716    1.0000 </r>
       <r>   -1.6173    1.0000 </r>
       <r>   -1.2686    1.0000 </r>
       <r>   -1.1218    1.0000 </r>
       <r>   -1.0758    1.0000 </r>
       <r>   -0.8478    1.0000 </r>
       <r>   -0.7503    1.0000 </r>
       <r>   -0.7035    1.0000 </r>
       <r>   -0.6475    1.0281 </r>
       <r>   -0.5998    0.9912 </r>
       <r>    0.1213    0.2718 </r>
       <r>    1.8388    0.0000 </r>
       <r>    3.9390    0.0000 </r>
       <r>    5.6177    0.0000 </r>
       <r>    5.8516    0.0000 </r>
       <r>    7.1088    0.0000 </r>
       <r>    7.4878    0.0000 </r>
       <r>    8.4472    0.0000 </r>
       <r>    9.0963    0.0000 </r>
       <r>   10.3200    0.0000 </r>
       <r>   10.5000    0.0000 </r>
       <r>   12.5261    0.0000 </r>
       <r>   13.6738    0.0000 </r>
       <r>   13.9142    0.0000 </r>
       <r>   14.5153    0.0000 </r>
       <r>   15.4458    0.0000 </r>
       <r>   15.9190    0.0000 </r>
       <r>   16.8567    0.0000 </r>
       <r>   17.4293    0.0000 </r>
       <r>   17.7426    0.0000 </r>
       <r>   18.2865    0.0000 </r>
      </set>
      <set comment="kpoint 9">
       <r>   -4.6156    1.0000 </r>
       <r>   -4.4884    1.0000 </r>
       <r>   -4.2113    1.0000 </r>
       <r>   -3.8336    1.0000 </r>
       <r>   -3.4915    1.0000 </r>
       <r>   -2.9551    1.0000 </r>
       <r>   -2.9008    1.0000 </r>
       <r>   -2.6155    1.0000 </r>
       <r>   -2.5695    1.0000 </r>
       <r>   -2.4892    1.0000 </r>
       <r>   -2.4250    1.0000 </r>
       <r>   -2.3045    1.0000 </r>
       <r>   -2.1982    1.0000 </r>
       <r>   -2.0662    1.0000 </r>
       <r>   -1.9509    1.0000 </r>
       <r>   -1.9122    1.0000 </r>
       <r>   -1.7560    1.0000 </r>
       <r>   -1.5073    1.0000 </r>
       <r>   -1.4461    1.0000 </r>
       <r>   -1.0709    1.0000 </r>
       <r>   -1.0340    1.0000 </r>
       <r>   -0.9051    1.0000 </r>
       <r>   -0.7153    1.0000 </r>
       <r>   -0.6812    1.0000 </r>
       <r>   -0.5985    1.0000 </r>
       <r>    0.2959    0.1140 </r>
       <r>    0.3970    0.0564 </r>
       <r>    1.0490   -0.0322 </r>
       <r>    2.1157    0.0000 </r>
       <r>    2.2612    0.0000 </r>
       <r>    4.7728    0.0000 </r>
       <r>    4.9937    0.0000 </r>
       <r>    6.9945    0.0000 </r>
       <r>    7.3442    0.0000 </r>
       <r>    8.7369    0.0000 </r>
       <r>    9.2946    0.0000 </r>
       <r>    9.7587    0.0000 </r>
       <r>   11.1437    0.0000 </r>
       <r>   11.5678    0.0000 </r>
       <r>   12.1009    0.0000 </r>
       <r>   12.2648    0.0000 </r>
       <r>   14.2119    0.0000 </r>
       <r>   14.6683    0.0000 </r>
       <r>   15.7112    0.0000 </r>
       <r>   15.7645    0.0000 </r>
       <r>   17.9932    0.0000 </r>
       <r>   18.2507    0.0000 </r>
       <r>   18.2810    0.0000 </r>
      </set>
      <set comment="kpoint 10">
       <r>   -6.2058    1.0000 </r>
       <r>   -5.2323    1.0000 </r>
       <r>   -4.0458    1.0000 </r>
       <r>   -3.5313    1.0000 </r>
       <r>   -3.2718    1.0000 </r>
       <r>   -3.2010    1.0000 </r>
       <r>   -3.1151    1.0000 </r>
       <r>   -3.0762    1.0000 </r>
       <r>   -2.9688    1.0000 </r>
       <r>   -2.8886    1.0000 </r>
       <r>   -2.4715    1.0000 </r>
       <r>   -2.3413    1.0000 </r>
       <r>   -2.1700    1.0000 </r>
       <r>   -1.9577    1.0000 </r>
       <r>   -1.9266    1.0000 </r>
       <r>   -1.8089    1.0000 </r>
       <r>   -1.6469    1.0000 </r>
       <r>   -1.5935    1.0000 </r>
       <r>   -1.4413    1.0000 </r>
       <r>   -1.4171    1.0000 </r>
       <r>   -1.3219    1.0000 </r>
       <r>   -1.2505    1.0000 </r>
       <r>   -1.2099    1.0000 </r>
       <r>   -0.9274    1.0000 </r>
       <r>   -0.8598    1.0000 </r>
       <r>   -0.6189    1.0000 </r>
       <r>   -0.5458    0.9934 </r>
       <r>    0.2030    0.1834 </r>
       <r>    1.7103    0.0000 </r>
       <r>    3.7269    0.0000 </r>
       <r>    5.5371    0.0000 </r>
       <r>    6.8685    0.0000 </r>
       <r>    8.5023    0.0000 </r>
       <r>    9.0305    0.0000 </r>
       <r>    9.6795    0.0000 </r>
       <r>   10.3104    0.0000 </r>
       <r>   11.2502    0.0000 </r>
       <r>   12.1180    0.0000 </r>
       <r>   12.1843    0.0000 </r>
       <r>   13.1981    0.0000 </r>
       <r>   13.3010    0.0000 </r>
       <r>   13.7826    0.0000 </r>
       <r>   14.4263    0.0000 </r>
       <r>   15.3229    0.0000 </r>
       <r>   16.8144    0.0000 </r>
       <r>   17.1068    0.0000 </r>
       <r>   18.0681    0.0000 </r>
       <r>   18.4371    0.0000 </r>
      </set>
      <set comment="kpoint 11">
       <r>   -5.1456    1.0000 </r>
       <r>   -4.4281    1.0000 </r>
       <r>   -3.8215    1.0000 </r>
       <r>   -3.4966    1.0000 </r>
       <r>   -3.4679    1.0000 </r>
       <r>   -3.2798    1.0000 </r>
       <r>   -3.0584    1.0000 </r>
       <r>   -3.0144    1.0000 </r>
       <r>   -2.8247    1.0000 </r>
       <r>   -2.7574    1.0000 </r>
       <r>   -2.5971    1.0000 </r>
       <r>   -2.4815    1.0000 </r>
       <r>   -2.2507    1.0000 </r>
       <r>   -1.7918    1.0000 </r>
       <r>   -1.7600    1.0000 </r>
       <r>   -1.6956    1.0000 </r>
       <r>   -1.6108    1.0000 </r>
       <r>   -1.5830    1.0000 </r>
       <r>   -1.4258    1.0000 </r>
       <r>   -1.1710    1.0000 </r>
       <r>   -1.1476    1.0000 </r>
       <r>   -0.9849    1.0000 </r>
       <r>   -0.8980    1.0000 </r>
       <r>   -0.7892    1.0000 </r>
       <r>   -0.6884    1.0000 </r>
       <r>   -0.5819    0.9460 </r>
       <r>   -0.1044    0.5566 </r>
       <r>    1.0926   -0.0376 </r>
       <r>    2.9120    0.0000 </r>
       <r>    5.0118    0.0000 </r>
       <r>    6.1708    0.0000 </r>
       <r>    6.8384    0.0000 </r>
       <r>    7.6282    0.0000 </r>
       <r>    8.3362    0.0000 </r>
       <r>    9.0777    0.0000 </r>
       <r>   10.0431    0.0000 </r>
       <r>   10.9845    0.0000 </r>
       <r>   11.1871    0.0000 </r>
       <r>   12.1049    0.0000 </r>
       <r>   12.9727    0.0000 </r>
       <r>   13.2689    0.0000 </r>
       <r>   14.3824    0.0000 </r>
       <r>   14.5500    0.0000 </r>
       <r>   14.7777    0.0000 </r>
       <r>   15.2283    0.0000 </r>
       <r>   16.2535    0.0000 </r>
       <r>   16.2819    0.0000 </r>
       <r>   17.8446    0.0000 </r>
      </set>
      <set comment="kpoint 12">
       <r>   -4.2891    1.0000 </r>
       <r>   -4.0328    1.0000 </r>
       <r>   -3.9034    1.0000 </r>
       <r>   -3.7362    1.0000 </r>
       <r>   -3.6348    1.0000 </r>
       <r>   -3.3128    1.0000 </r>
       <r>   -3.1520    1.0000 </r>
       <r>   -3.0683    1.0000 </r>
       <r>   -2.8090    1.0000 </r>
       <r>   -2.6941    1.0000 </r>
       <r>   -2.4223    1.0000 </r>
       <r>   -2.3659    1.0000 </r>
       <r>   -2.2534    1.0000 </r>
       <r>   -1.7535    1.0000 </r>
       <r>   -1.7294    1.0000 </r>
       <r>   -1.6825    1.0000 </r>
       <r>   -1.6513    1.0000 </r>
       <r>   -1.4788    1.0000 </r>
       <r>   -1.2992    1.0000 </r>
       <r>   -1.0608    1.0000 </r>
       <r>   -0.8961    1.0000 </r>
       <r>   -0.7845    1.0000 </r>
       <r>   -0.6308    1.0000 </r>
       <r>   -0.5889    1.0000 </r>
       <r>   -0.5585    1.0000 </r>
       <r>    0.6158    0.0236 </r>
       <r>    1.3190   -0.0459 </r>
       <r>    2.5169    0.0000 </r>
       <r>    2.9252    0.0000 </r>
       <r>    3.4172    0.0000 </r>
       <r>    5.3736    0.0000 </r>
       <r>    5.7371    0.0000 </r>
       <r>    7.5766    0.0000 </r>
       <r>    7.9659    0.0000 </r>
       <r>    9.4792    0.0000 </r>
       <r>   10.1032    0.0000 </r>
       <r>   10.4933    0.0000 </r>
       <r>   11.9503    0.0000 </r>
       <r>   12.3862    0.0000 </r>
       <r>   12.8239    0.0000 </r>
       <r>   13.0452    0.0000 </r>
       <r>   14.0481    0.0000 </r>
       <r>   14.8345    0.0000 </r>
       <r>   15.0668    0.0000 </r>
       <r>   15.2706    0.0000 </r>
       <r>   16.2819    0.0000 </r>
       <r>   16.4870    0.0000 </r>
       <r>   16.5257    0.0000 </r>
      </set>
      <set comment="kpoint 13">
       <r>   -4.5781    1.0000 </r>
       <r>   -3.9161    1.0000 </r>
       <r>   -3.7923    1.0000 </r>
       <r>   -3.6320    1.0000 </r>
       <r>   -3.6097    1.0000 </r>
       <r>   -3.5304    1.0000 </r>
       <r>   -3.3011    1.0000 </r>
       <r>   -3.2673    1.0000 </r>
       <r>   -2.9290    1.0000 </r>
       <r>   -2.7442    1.0000 </r>
       <r>   -2.7242    1.0000 </r>
       <r>   -2.2762    1.0000 </r>
       <r>   -2.2076    1.0000 </r>
       <r>   -1.4048    1.0000 </r>
       <r>   -1.3872    1.0000 </r>
       <r>   -1.3611    1.0000 </r>
       <r>   -1.3058    1.0000 </r>
       <r>   -1.2288    1.0000 </r>
       <r>   -1.0508    1.0000 </r>
       <r>   -1.0269    1.0000 </r>
       <r>   -0.9356    1.0000 </r>
       <r>   -0.9301    1.0000 </r>
       <r>   -0.7718    1.0000 </r>
       <r>   -0.7468    1.0000 </r>
       <r>   -0.5342    1.0000 </r>
       <r>   -0.3828    0.6458 </r>
       <r>    0.8231   -0.0621 </r>
       <r>    2.3842    0.0000 </r>
       <r>    4.3763    0.0000 </r>
       <r>    5.8985    0.0000 </r>
       <r>    6.5942    0.0000 </r>
       <r>    7.3121    0.0000 </r>
       <r>    8.5746    0.0000 </r>
       <r>    9.3634    0.0000 </r>
       <r>    9.6291    0.0000 </r>
       <r>   10.0421    0.0000 </r>
       <r>   10.7025    0.0000 </r>
       <r>   11.5714    0.0000 </r>
       <r>   11.7056    0.0000 </r>
       <r>   11.7956    0.0000 </r>
       <r>   12.4071    0.0000 </r>
       <r>   13.1792    0.0000 </r>
       <r>   14.3396    0.0000 </r>
       <r>   14.5458    0.0000 </r>
       <r>   15.8165    0.0000 </r>
       <r>   15.9123    0.0000 </r>
       <r>   15.9511    0.0000 </r>
       <r>   16.0003    0.0000 </r>
      </set>
      <set comment="kpoint 14">
       <r>   -4.2886    1.0000 </r>
       <r>   -4.0529    1.0000 </r>
       <r>   -3.8585    1.0000 </r>
       <r>   -3.7957    1.0000 </r>
       <r>   -3.6886    1.0000 </r>
       <r>   -3.5827    1.0000 </r>
       <r>   -3.4880    1.0000 </r>
       <r>   -3.3187    1.0000 </r>
       <r>   -3.1288    1.0000 </r>
       <r>   -2.9054    1.0000 </r>
       <r>   -2.5291    1.0000 </r>
       <r>   -2.0260    1.0000 </r>
       <r>   -1.9161    1.0000 </r>
       <r>   -1.2934    1.0000 </r>
       <r>   -1.2441    1.0000 </r>
       <r>   -1.1727    1.0000 </r>
       <r>   -1.1414    1.0000 </r>
       <r>   -1.0736    1.0000 </r>
       <r>   -1.0096    1.0000 </r>
       <r>   -0.9067    1.0000 </r>
       <r>   -0.7500    1.0000 </r>
       <r>   -0.6229    1.0000 </r>
       <r>   -0.6021    1.0000 </r>
       <r>   -0.5901    1.0000 </r>
       <r>   -0.4605    1.0000 </r>
       <r>    1.2401   -0.0381 </r>
       <r>    2.5094   -0.0059 </r>
       <r>    3.6419    0.0000 </r>
       <r>    4.1935    0.0000 </r>
       <r>    4.8741    0.0000 </r>
       <r>    6.4417    0.0000 </r>
       <r>    6.8926    0.0000 </r>
       <r>    8.6978    0.0000 </r>
       <r>    9.1233    0.0000 </r>
       <r>   10.6722    0.0000 </r>
       <r>   10.8216    0.0000 </r>
       <r>   11.3736    0.0000 </r>
       <r>   11.7029    0.0000 </r>
       <r>   11.8417    0.0000 </r>
       <r>   12.7949    0.0000 </r>
       <r>   13.0981    0.0000 </r>
       <r>   13.1865    0.0000 </r>
       <r>   13.5950    0.0000 </r>
       <r>   13.9965    0.0000 </r>
       <r>   14.0703    0.0000 </r>
       <r>   14.4030    0.0000 </r>
       <r>   14.5862    0.0000 </r>
       <r>   15.3032    0.0000 </r>
      </set>
      <set comment="kpoint 15">
       <r>   -4.3958    1.0000 </r>
       <r>   -4.2651    1.0000 </r>
       <r>   -3.9650    1.0000 </r>
       <r>   -3.9346    1.0000 </r>
       <r>   -3.9164    1.0000 </r>
       <r>   -3.6511    1.0000 </r>
       <r>   -3.5072    1.0000 </r>
       <r>   -3.4776    1.0000 </r>
       <r>   -3.3768    1.0000 </r>
       <r>   -2.7085    1.0000 </r>
       <r>   -2.6717    1.0000 </r>
       <r>   -1.7548    1.0000 </r>
       <r>   -1.7135    1.0000 </r>
       <r>   -1.1228    1.0000 </r>
       <r>   -1.0212    1.0000 </r>
       <r>   -0.8771    1.0000 </r>
       <r>   -0.8273    1.0000 </r>
       <r>   -0.7331    1.0000 </r>
       <r>   -0.6809    1.0000 </r>
       <r>   -0.6117    1.0000 </r>
       <r>   -0.5939    1.0000 </r>
       <r>   -0.5252    1.0000 </r>
       <r>   -0.4953    1.0000 </r>
       <r>   -0.3501    1.0000 </r>
       <r>   -0.3077    1.0000 </r>
       <r>    2.4069   -0.0133 </r>
       <r>    3.6403    0.0000 </r>
       <r>    4.0325    0.0000 </r>
       <r>    5.3482    0.0000 </r>
       <r>    6.0779    0.0000 </r>
       <r>    7.6652    0.0000 </r>
       <r>    8.2626    0.0000 </r>
       <r>    9.3409    0.0000 </r>
       <r>    9.9582    0.0000 </r>
       <r>   10.2832    0.0000 </r>
       <r>   10.3309    0.0000 </r>
       <r>   10.4692    0.0000 </r>
       <r>   11.0866    0.0000 </r>
       <r>   11.1513    0.0000 </r>
       <r>   11.7616    0.0000 </r>
       <r>   12.2252    0.0000 </r>
       <r>   12.8061    0.0000 </r>
       <r>   12.9054    0.0000 </r>
       <r>   13.3968    0.0000 </r>
       <r>   13.7310    0.0000 </r>
       <r>   13.7935    0.0000 </r>
       <r>   14.4903    0.0000 </r>
       <r>   15.0608    0.0000 </r>
      </set>
     </set>
     <set comment="spin 2">
      <set comment="kpoint 1">
       <r>   -8.5419    1.0000 </r>
       <r>   -7.3544    1.0000 </r>
       <r>   -5.6422    1.0000 </r>
       <r>   -4.3290    1.0000 </r>
       <r>   -4.1454    1.0000 </r>
       <r>   -3.4454    1.0000 </r>
       <r>   -3.0710    1.0000 </r>
       <r>   -2.4765    1.0000 </r>
       <r>   -1.9924    1.0000 </r>
       <r>   -1.7457    1.0000 </r>
       <r>   -1.5489    1.0000 </r>
       <r>   -1.5489    1.0000 </r>
       <r>   -1.2177    1.0000 </r>
       <r>   -1.1439    1.0000 </r>
       <r>   -1.1439    1.0000 </r>
       <r>   -0.9142    1.0000 </r>
       <r>   -0.8922    1.0000 </r>
       <r>   -0.7046    1.0000 </r>
       <r>   -0.5817    1.0000 </r>
       <r>   -0.5313    1.0000 </r>
       <r>   -0.5313    1.0000 </r>
       <r>   -0.3873    1.0000 </r>
       <r>   -0.1240    1.0000 </r>
       <r>    0.0475    0.8118 </r>
       <r>    0.0475    0.0783 </r>
       <r>    0.1466    0.0000 </r>
       <r>    0.1816    0.0000 </r>
       <r>    0.3172    0.0000 </r>
       <r>    0.3172    0.0000 </r>
       <r>    0.6420    0.0000 </r>
       <r>    1.9292    0.0000 </r>
       <r>    4.6167    0.0000 </r>
       <r>    5.8666    0.0000 </r>
       <r>    7.8646    0.0000 </r>
       <r>   10.9382    0.0000 </r>
       <r>   11.6568    0.0000 </r>
       <r>   15.3890    0.0000 </r>
       <r>   15.3890    0.0000 </r>
       <r>   15.7414    0.0000 </r>
       <r>   16.3667    0.0000 </r>
       <r>   16.9871    0.0000 </r>
       <r>   16.9871    0.0000 </r>
       <r>   19.3402    0.0000 </r>
       <r>   19.3402    0.0000 </r>
       <r>   19.9277    0.0000 </r>
       <r>   20.4615    0.0000 </r>
       <r>   21.2571    0.0000 </r>
       <r>   21.3245    0.0000 </r>
      </set>
      <set comment="kpoint 2">
       <r>   -8.2291    1.0000 </r>
       <r>   -7.0590    1.0000 </r>
       <r>   -5.3796    1.0000 </r>
       <r>   -4.1076    1.0000 </r>
       <r>   -3.9595    1.0000 </r>
       <r>   -3.3505    1.0000 </r>
       <r>   -2.9932    1.0000 </r>
       <r>   -2.4318    1.0000 </r>
       <r>   -1.9833    1.0000 </r>
       <r>   -1.6740    1.0000 </r>
       <r>   -1.5864    1.0000 </r>
       <r>   -1.5083    1.0000 </r>
       <r>   -1.4738    1.0000 </r>
       <r>   -1.3220    1.0000 </r>
       <r>   -1.1881    1.0000 </r>
       <r>   -0.8687    1.0000 </r>
       <r>   -0.8308    1.0000 </r>
       <r>   -0.7497    1.0000 </r>
       <r>   -0.6827    1.0000 </r>
       <r>   -0.6201    1.0000 </r>
       <r>   -0.4816    1.0000 </r>
       <r>   -0.3279    1.0000 </r>
       <r>   -0.2934    1.0000 </r>
       <r>   -0.2751    1.0200 </r>
       <r>    0.0370    0.4216 </r>
       <r>    0.0618    0.0000 </r>
       <r>    0.0760    0.0000 </r>
       <r>    0.1788    0.0000 </r>
       <r>    0.3266    0.0000 </r>
       <r>    1.4085    0.0000 </r>
       <r>    2.7524    0.0000 </r>
       <r>    4.9165    0.0000 </r>
       <r>    6.2086    0.0000 </r>
       <r>    8.1137    0.0000 </r>
       <r>   11.2124    0.0000 </r>
       <r>   11.7975    0.0000 </r>
       <r>   12.8260    0.0000 </r>
       <r>   14.0548    0.0000 </r>
       <r>   15.7906    0.0000 </r>
       <r>   15.8607    0.0000 </r>
       <r>   16.1804    0.0000 </r>
       <r>   16.6735    0.0000 </r>
       <r>   17.4193    0.0000 </r>
       <r>   17.9944    0.0000 </r>
       <r>   19.7295    0.0000 </r>
       <r>   20.0585    0.0000 </r>
       <r>   21.0540    0.0000 </r>
       <r>   21.2848    0.0000 </r>
      </set>
      <set comment="kpoint 3">
       <r>   -7.3300    1.0000 </r>
       <r>   -6.2370    1.0000 </r>
       <r>   -4.7245    1.0000 </r>
       <r>   -3.6293    1.0000 </r>
       <r>   -3.4945    1.0000 </r>
       <r>   -3.1154    1.0000 </r>
       <r>   -2.7438    1.0000 </r>
       <r>   -2.2525    1.0000 </r>
       <r>   -2.0333    1.0000 </r>
       <r>   -1.7136    1.0000 </r>
       <r>   -1.6271    1.0000 </r>
       <r>   -1.5740    1.0000 </r>
       <r>   -1.5455    1.0000 </r>
       <r>   -1.4329    1.0000 </r>
       <r>   -1.3234    1.0000 </r>
       <r>   -1.1374    1.0000 </r>
       <r>   -1.0268    1.0000 </r>
       <r>   -1.0082    1.0000 </r>
       <r>   -0.8235    1.0000 </r>
       <r>   -0.5998    1.0000 </r>
       <r>   -0.5361    1.0000 </r>
       <r>   -0.5103    1.0000 </r>
       <r>   -0.3702    1.0000 </r>
       <r>   -0.3499    1.0000 </r>
       <r>   -0.0964    1.0546 </r>
       <r>    0.0678    0.0000 </r>
       <r>    0.2499    0.0000 </r>
       <r>    0.2657    0.0000 </r>
       <r>    0.7829    0.0000 </r>
       <r>    2.5667    0.0000 </r>
       <r>    4.2214    0.0000 </r>
       <r>    5.7944    0.0000 </r>
       <r>    7.2253    0.0000 </r>
       <r>    8.5797    0.0000 </r>
       <r>    9.1979    0.0000 </r>
       <r>   10.1366    0.0000 </r>
       <r>   11.8307    0.0000 </r>
       <r>   12.0904    0.0000 </r>
       <r>   12.6020    0.0000 </r>
       <r>   13.8899    0.0000 </r>
       <r>   15.9754    0.0000 </r>
       <r>   16.9084    0.0000 </r>
       <r>   17.2020    0.0000 </r>
       <r>   17.3815    0.0000 </r>
       <r>   17.8768    0.0000 </r>
       <r>   18.6557    0.0000 </r>
       <r>   19.0744    0.0000 </r>
       <r>   20.8488    0.0000 </r>
      </set>
      <set comment="kpoint 4">
       <r>   -5.9906    1.0000 </r>
       <r>   -5.1489    1.0000 </r>
       <r>   -4.1555    1.0000 </r>
       <r>   -3.4281    1.0000 </r>
       <r>   -3.0883    1.0000 </r>
       <r>   -2.8229    1.0000 </r>
       <r>   -2.2894    1.0000 </r>
       <r>   -2.0972    1.0000 </r>
       <r>   -1.8500    1.0000 </r>
       <r>   -1.8123    1.0000 </r>
       <r>   -1.6744    1.0000 </r>
       <r>   -1.5020    1.0000 </r>
       <r>   -1.4977    1.0000 </r>
       <r>   -1.4854    1.0000 </r>
       <r>   -1.4324    1.0000 </r>
       <r>   -1.2511    1.0000 </r>
       <r>   -1.2107    1.0000 </r>
       <r>   -1.1459    1.0000 </r>
       <r>   -1.1062    1.0000 </r>
       <r>   -0.6907    1.0000 </r>
       <r>   -0.4914    1.0000 </r>
       <r>   -0.2500    1.0000 </r>
       <r>   -0.1088    1.0703 </r>
       <r>   -0.1025    0.9809 </r>
       <r>    0.0287    0.3071 </r>
       <r>    0.1036    0.0000 </r>
       <r>    0.1475    0.0000 </r>
       <r>    0.2384    0.0000 </r>
       <r>    1.6225    0.0000 </r>
       <r>    3.6844    0.0000 </r>
       <r>    5.5978    0.0000 </r>
       <r>    5.6246    0.0000 </r>
       <r>    7.1435    0.0000 </r>
       <r>    7.3125    0.0000 </r>
       <r>    8.4326    0.0000 </r>
       <r>    8.8227    0.0000 </r>
       <r>   10.1914    0.0000 </r>
       <r>   10.3977    0.0000 </r>
       <r>   12.3567    0.0000 </r>
       <r>   13.4427    0.0000 </r>
       <r>   13.7703    0.0000 </r>
       <r>   14.3246    0.0000 </r>
       <r>   15.2614    0.0000 </r>
       <r>   17.1973    0.0000 </r>
       <r>   17.5791    0.0000 </r>
       <r>   18.3693    0.0000 </r>
       <r>   18.6166    0.0000 </r>
       <r>   19.2481    0.0000 </r>
      </set>
      <set comment="kpoint 5">
       <r>   -4.6043    1.0000 </r>
       <r>   -4.3731    1.0000 </r>
       <r>   -4.0098    1.0000 </r>
       <r>   -3.5169    1.0000 </r>
       <r>   -3.2542    1.0000 </r>
       <r>   -2.3449    1.0000 </r>
       <r>   -2.1339    1.0000 </r>
       <r>   -1.9615    1.0000 </r>
       <r>   -1.8965    1.0000 </r>
       <r>   -1.7491    1.0000 </r>
       <r>   -1.6294    1.0000 </r>
       <r>   -1.6160    1.0000 </r>
       <r>   -1.6144    1.0000 </r>
       <r>   -1.5430    1.0000 </r>
       <r>   -1.5139    1.0000 </r>
       <r>   -1.2888    1.0000 </r>
       <r>   -1.1796    1.0000 </r>
       <r>   -0.8358    1.0000 </r>
       <r>   -0.7824    1.0000 </r>
       <r>   -0.4145    1.0000 </r>
       <r>   -0.2163    1.0000 </r>
       <r>   -0.0974    1.0000 </r>
       <r>    0.0101    0.3465 </r>
       <r>    0.1453   -0.0378 </r>
       <r>    0.1982   -0.0201 </r>
       <r>    0.2283    0.0000 </r>
       <r>    0.4716    0.0000 </r>
       <r>    0.7902    0.0000 </r>
       <r>    1.7501    0.0000 </r>
       <r>    2.3518    0.0000 </r>
       <r>    4.8040    0.0000 </r>
       <r>    4.9433    0.0000 </r>
       <r>    7.0627    0.0000 </r>
       <r>    7.3897    0.0000 </r>
       <r>    8.5880    0.0000 </r>
       <r>    9.1007    0.0000 </r>
       <r>    9.6477    0.0000 </r>
       <r>   10.9478    0.0000 </r>
       <r>   11.3427    0.0000 </r>
       <r>   11.9287    0.0000 </r>
       <r>   12.1131    0.0000 </r>
       <r>   13.9905    0.0000 </r>
       <r>   14.5198    0.0000 </r>
       <r>   15.5106    0.0000 </r>
       <r>   15.6191    0.0000 </r>
       <r>   18.0945    0.0000 </r>
       <r>   18.1210    0.0000 </r>
       <r>   20.2199    0.0000 </r>
      </set>
      <set comment="kpoint 6">
       <r>   -7.9208    1.0000 </r>
       <r>   -6.7672    1.0000 </r>
       <r>   -5.1196    1.0000 </r>
       <r>   -3.8901    1.0000 </r>
       <r>   -3.7838    1.0000 </r>
       <r>   -3.2471    1.0000 </r>
       <r>   -2.9178    1.0000 </r>
       <r>   -2.4049    1.0000 </r>
       <r>   -2.0242    1.0000 </r>
       <r>   -1.6095    1.0000 </r>
       <r>   -1.5909    1.0000 </r>
       <r>   -1.5646    1.0000 </r>
       <r>   -1.5488    1.0000 </r>
       <r>   -1.4597    1.0000 </r>
       <r>   -1.1729    1.0000 </r>
       <r>   -0.9916    1.0000 </r>
       <r>   -0.8526    1.0000 </r>
       <r>   -0.7977    1.0000 </r>
       <r>   -0.7363    1.0000 </r>
       <r>   -0.6656    1.0000 </r>
       <r>   -0.5717    1.0000 </r>
       <r>   -0.5020    1.0000 </r>
       <r>   -0.4247    1.0000 </r>
       <r>   -0.1514    1.0029 </r>
       <r>   -0.0941    1.0388 </r>
       <r>    0.0161    0.0000 </r>
       <r>    0.0399    0.0000 </r>
       <r>    0.3053    0.0000 </r>
       <r>    0.5407    0.0000 </r>
       <r>    1.9105    0.0000 </r>
       <r>    3.3215    0.0000 </r>
       <r>    5.2152    0.0000 </r>
       <r>    6.5495    0.0000 </r>
       <r>    8.3635    0.0000 </r>
       <r>   11.4898    0.0000 </r>
       <r>   12.0010    0.0000 </r>
       <r>   12.7329    0.0000 </r>
       <r>   13.6758    0.0000 </r>
       <r>   14.0399    0.0000 </r>
       <r>   14.7705    0.0000 </r>
       <r>   15.8869    0.0000 </r>
       <r>   16.1666    0.0000 </r>
       <r>   16.8100    0.0000 </r>
       <r>   17.0448    0.0000 </r>
       <r>   17.9820    0.0000 </r>
       <r>   18.5937    0.0000 </r>
       <r>   20.1138    0.0000 </r>
       <r>   20.6036    0.0000 </r>
      </set>
      <set comment="kpoint 7">
       <r>   -7.0384    1.0000 </r>
       <r>   -5.9590    1.0000 </r>
       <r>   -4.4771    1.0000 </r>
       <r>   -3.4285    1.0000 </r>
       <r>   -3.3503    1.0000 </r>
       <r>   -2.9984    1.0000 </r>
       <r>   -2.6921    1.0000 </r>
       <r>   -2.2982    1.0000 </r>
       <r>   -2.1658    1.0000 </r>
       <r>   -1.9269    1.0000 </r>
       <r>   -1.7048    1.0000 </r>
       <r>   -1.4998    1.0000 </r>
       <r>   -1.4662    1.0000 </r>
       <r>   -1.4320    1.0000 </r>
       <r>   -1.3025    1.0000 </r>
       <r>   -1.2463    1.0000 </r>
       <r>   -1.1007    1.0000 </r>
       <r>   -0.9921    1.0000 </r>
       <r>   -0.7901    1.0000 </r>
       <r>   -0.7642    1.0000 </r>
       <r>   -0.6256    1.0000 </r>
       <r>   -0.4513    1.0000 </r>
       <r>   -0.3964    1.0000 </r>
       <r>   -0.2523    1.0000 </r>
       <r>   -0.2172    1.0926 </r>
       <r>    0.0667    0.0000 </r>
       <r>    0.2535    0.0000 </r>
       <r>    0.2709    0.0000 </r>
       <r>    1.2413    0.0000 </r>
       <r>    2.9557    0.0000 </r>
       <r>    4.6090    0.0000 </r>
       <r>    6.0920    0.0000 </r>
       <r>    7.5595    0.0000 </r>
       <r>    8.8786    0.0000 </r>
       <r>    9.4237    0.0000 </r>
       <r>   10.4003    0.0000 </r>
       <r>   12.0899    0.0000 </r>
       <r>   12.3604    0.0000 </r>
       <r>   12.7693    0.0000 </r>
       <r>   14.1423    0.0000 </r>
       <r>   14.3917    0.0000 </r>
       <r>   15.4479    0.0000 </r>
       <r>   16.2338    0.0000 </r>
       <r>   16.9566    0.0000 </r>
       <r>   17.4528    0.0000 </r>
       <r>   17.7680    0.0000 </r>
       <r>   18.1360    0.0000 </r>
       <r>   19.1438    0.0000 </r>
      </set>
      <set comment="kpoint 8">
       <r>   -5.7384    1.0000 </r>
       <r>   -4.9017    1.0000 </r>
       <r>   -3.9416    1.0000 </r>
       <r>   -3.2461    1.0000 </r>
       <r>   -2.9014    1.0000 </r>
       <r>   -2.8723    1.0000 </r>
       <r>   -2.3702    1.0000 </r>
       <r>   -2.2849    1.0000 </r>
       <r>   -2.0361    1.0000 </r>
       <r>   -1.9778    1.0000 </r>
       <r>   -1.7583    1.0000 </r>
       <r>   -1.6482    1.0000 </r>
       <r>   -1.5925    1.0000 </r>
       <r>   -1.3787    1.0000 </r>
       <r>   -1.3502    1.0000 </r>
       <r>   -1.2528    1.0000 </r>
       <r>   -1.1916    1.0000 </r>
       <r>   -1.0593    1.0000 </r>
       <r>   -0.9854    1.0000 </r>
       <r>   -0.6292    1.0000 </r>
       <r>   -0.4160    1.0000 </r>
       <r>   -0.3960    1.0000 </r>
       <r>   -0.1689    1.0670 </r>
       <r>   -0.1097    0.9786 </r>
       <r>   -0.0110    0.4534 </r>
       <r>    0.1386    0.0000 </r>
       <r>    0.1872    0.0000 </r>
       <r>    0.6557    0.0000 </r>
       <r>    2.1181    0.0000 </r>
       <r>    4.0953    0.0000 </r>
       <r>    5.8350    0.0000 </r>
       <r>    5.9760    0.0000 </r>
       <r>    7.3230    0.0000 </r>
       <r>    7.5945    0.0000 </r>
       <r>    8.6409    0.0000 </r>
       <r>    9.1444    0.0000 </r>
       <r>   10.4285    0.0000 </r>
       <r>   10.6230    0.0000 </r>
       <r>   12.5995    0.0000 </r>
       <r>   13.7232    0.0000 </r>
       <r>   13.9821    0.0000 </r>
       <r>   14.5660    0.0000 </r>
       <r>   15.5294    0.0000 </r>
       <r>   15.9986    0.0000 </r>
       <r>   16.9326    0.0000 </r>
       <r>   17.4712    0.0000 </r>
       <r>   17.8166    0.0000 </r>
       <r>   18.3207    0.0000 </r>
      </set>
      <set comment="kpoint 9">
       <r>   -4.4131    1.0000 </r>
       <r>   -4.1591    1.0000 </r>
       <r>   -3.8271    1.0000 </r>
       <r>   -3.3819    1.0000 </r>
       <r>   -3.1542    1.0000 </r>
       <r>   -2.4730    1.0000 </r>
       <r>   -2.3196    1.0000 </r>
       <r>   -2.1477    1.0000 </r>
       <r>   -2.0312    1.0000 </r>
       <r>   -1.9812    1.0000 </r>
       <r>   -1.7931    1.0000 </r>
       <r>   -1.7288    1.0000 </r>
       <r>   -1.6409    1.0000 </r>
       <r>   -1.4473    1.0000 </r>
       <r>   -1.3511    1.0000 </r>
       <r>   -1.2618    1.0000 </r>
       <r>   -1.1165    1.0000 </r>
       <r>   -0.9133    1.0000 </r>
       <r>   -0.7800    1.0000 </r>
       <r>   -0.4697    1.0000 </r>
       <r>   -0.2499    1.0000 </r>
       <r>   -0.1985    1.0000 </r>
       <r>    0.0096    0.3443 </r>
       <r>    0.0205    0.2357 </r>
       <r>    0.1749   -0.0148 </r>
[...]
        <r>  0.0004  0.0012  0.2932 </r>
        <r>  0.0030  0.0036  0.1788 </r>
       </set>
       <set comment="band 23">
        <r>  0.0003  0.0008  0.0458 </r>
        <r>  0.0002  0.0003  0.4528 </r>
        <r>  0.0000  0.0001  0.1792 </r>
        <r>  0.0000  0.0005  0.2867 </r>
        <r>  0.0000  0.0021  0.0197 </r>
       </set>
       <set comment="band 24">
        <r>  0.0013  0.0011  0.1772 </r>
        <r>  0.0001  0.0011  0.0754 </r>
        <r>  0.0000  0.0010  0.4865 </r>
        <r>  0.0001  0.0013  0.0772 </r>
        <r>  0.0009  0.0007  0.1644 </r>
       </set>
       <set comment="band 25">
        <r>  0.0005  0.0008  0.2962 </r>
        <r>  0.0000  0.0000  0.1284 </r>
        <r>  0.0000  0.0002  0.1432 </r>
        <r>  0.0000  0.0001  0.1323 </r>
        <r>  0.0003  0.0006  0.2883 </r>
       </set>
       <set comment="band 26">
        <r>  0.0152  0.0385  0.0911 </r>
        <r>  0.0266  0.0604  0.0890 </r>
        <r>  0.0299  0.0768  0.0831 </r>
        <r>  0.0272  0.0622  0.0870 </r>
        <r>  0.0171  0.0437  0.0982 </r>
       </set>
       <set comment="band 27">
        <r>  0.0407  0.0839  0.0650 </r>
        <r>  0.0275  0.0619  0.0767 </r>
        <r>  0.0000  0.0098  0.1023 </r>
        <r>  0.0259  0.0597  0.0762 </r>
        <r>  0.0387  0.0810  0.0621 </r>
       </set>
       <set comment="band 28">
        <r>  0.0076  0.0429  0.0450 </r>
        <r>  0.0158  0.1018  0.0651 </r>
        <r>  0.0195  0.1354  0.0799 </r>
        <r>  0.0165  0.1085  0.0664 </r>
        <r>  0.0088  0.0513  0.0519 </r>
       </set>
       <set comment="band 29">
        <r>  0.0383  0.0951  0.0425 </r>
        <r>  0.0002  0.0293  0.0878 </r>
        <r>  0.0383  0.0898  0.0526 </r>
        <r>  0.0000  0.0273  0.0874 </r>
        <r>  0.0355  0.0855  0.0404 </r>
       </set>
       <set comment="band 30">
        <r>  0.0093  0.1151  0.0554 </r>
        <r>  0.0080  0.1044  0.0602 </r>
        <r>  0.0000  0.0171  0.0573 </r>
        <r>  0.0073  0.1003  0.0607 </r>
        <r>  0.0081  0.1174  0.0557 </r>
       </set>
       <set comment="band 31">
        <r>  0.0579  0.0693  0.0435 </r>
        <r>  0.0430  0.0488  0.0354 </r>
        <r>  0.0000  0.0320  0.0568 </r>
        <r>  0.0384  0.0460  0.0353 </r>
        <r>  0.0472  0.0597  0.0401 </r>
       </set>
       <set comment="band 32">
        <r>  0.0508  0.1048  0.0370 </r>
        <r>  0.0000  0.0151  0.0587 </r>
        <r>  0.0374  0.0913  0.0339 </r>
        <r>  0.0009  0.0140  0.0644 </r>
        <r>  0.0574  0.1071  0.0389 </r>
       </set>
       <set comment="band 33">
        <r>  0.0003  0.0673  0.0398 </r>
        <r>  0.0160  0.0366  0.0494 </r>
        <r>  0.0597  0.0630  0.0192 </r>
        <r>  0.0114  0.0387  0.0449 </r>
        <r>  0.0000  0.0665  0.0370 </r>
       </set>
       <set comment="band 34">
        <r>  0.0095  0.0683  0.0387 </r>
        <r>  0.0543  0.0866  0.0266 </r>
        <r>  0.0004  0.0078  0.0861 </r>
        <r>  0.0554  0.0807  0.0294 </r>
        <r>  0.0108  0.0627  0.0423 </r>
       </set>
       <set comment="band 35">
        <r>  0.0025  0.0465  0.0345 </r>
        <r>  0.0012  0.0392  0.0370 </r>
        <r>  0.0001  0.0693  0.0177 </r>
        <r>  0.0011  0.0363  0.0393 </r>
        <r>  0.0025  0.0478  0.0336 </r>
       </set>
       <set comment="band 36">
        <r>  0.0146  0.0124  0.0317 </r>
        <r>  0.0595  0.0349  0.0909 </r>
        <r>  0.0913  0.0481  0.1269 </r>
        <r>  0.0606  0.0358  0.0942 </r>
        <r>  0.0155  0.0133  0.0356 </r>
       </set>
       <set comment="band 37">
        <r>  0.0000  0.0398  0.0441 </r>
        <r>  0.0148  0.0513  0.0285 </r>
        <r>  0.0232  0.0524  0.0222 </r>
        <r>  0.0109  0.0593  0.0237 </r>
        <r>  0.0015  0.0321  0.0498 </r>
       </set>
       <set comment="band 38">
        <r>  0.0760  0.0330  0.0635 </r>
        <r>  0.0800  0.0425  0.0723 </r>
        <r>  0.0010  0.0050  0.0175 </r>
        <r>  0.0525  0.0354  0.0732 </r>
        <r>  0.0570  0.0339  0.0606 </r>
       </set>
       <set comment="band 39">
        <r>  0.0009  0.0160  0.0150 </r>
        <r>  0.0147  0.0163  0.0049 </r>
        <r>  0.0131  0.0213  0.0011 </r>
        <r>  0.0492  0.0093  0.0067 </r>
        <r>  0.0158  0.0152  0.0120 </r>
       </set>
       <set comment="band 40">
        <r>  0.0506  0.0609  0.0644 </r>
        <r>  0.0027  0.0371  0.0257 </r>
        <r>  0.0393  0.0411  0.0878 </r>
        <r>  0.0012  0.0301  0.0310 </r>
        <r>  0.0517  0.0654  0.0643 </r>
       </set>
       <set comment="band 41">
        <r>  0.0001  0.0436  0.0401 </r>
        <r>  0.0210  0.0511  0.0594 </r>
        <r>  0.0287  0.0605  0.0567 </r>
        <r>  0.0086  0.0261  0.0515 </r>
        <r>  0.0055  0.0530  0.0091 </r>
       </set>
       <set comment="band 42">
        <r>  0.0040  0.0421  0.0206 </r>
        <r>  0.0212  0.0349  0.0629 </r>
        <r>  0.0650  0.0616  0.0713 </r>
        <r>  0.0365  0.0603  0.0724 </r>
        <r>  0.0001  0.0202  0.0565 </r>
       </set>
       <set comment="band 43">
        <r>  0.0019  0.0479  0.0427 </r>
        <r>  0.0042  0.0670  0.0204 </r>
        <r>  0.0000  0.0028  0.0265 </r>
        <r>  0.0077  0.0677  0.0240 </r>
        <r>  0.0014  0.0455  0.0495 </r>
       </set>
       <set comment="band 44">
        <r>  0.0100  0.0156  0.0666 </r>
        <r>  0.0076  0.0578  0.0814 </r>
        <r>  0.0002  0.0667  0.0166 </r>
        <r>  0.0105  0.0417  0.0749 </r>
        <r>  0.0066  0.0228  0.0711 </r>
       </set>
       <set comment="band 45">
        <r>  0.0045  0.0452  0.0074 </r>
        <r>  0.0155  0.0258  0.0095 </r>
        <r>  0.0127  0.0244  0.0039 </r>
        <r>  0.0187  0.0275  0.0094 </r>
        <r>  0.0054  0.0370  0.0071 </r>
       </set>
       <set comment="band 46">
        <r>  0.0052  0.0160  0.0204 </r>
        <r>  0.0003  0.0411  0.0093 </r>
        <r>  0.0096  0.0459  0.0130 </r>
        <r>  0.0031  0.0439  0.0081 </r>
        <r>  0.0149  0.0109  0.0144 </r>
       </set>
       <set comment="band 47">
        <r>  0.0630  0.0495  0.0332 </r>
        <r>  0.0599  0.0719  0.0190 </r>
        <r>  0.0000  0.0620  0.0042 </r>
        <r>  0.0504  0.0845  0.0210 </r>
        <r>  0.0548  0.0499  0.0378 </r>
       </set>
       <set comment="band 48">
        <r>  0.0529  0.0518  0.0524 </r>
        <r>  0.0003  0.0362  0.0182 </r>
        <r>  0.0274  0.0977  0.0568 </r>
        <r>  0.0000  0.0390  0.0174 </r>
        <r>  0.0625  0.0574  0.0565 </r>
       </set>
      </set>
      <set comment="kpoint 15">
       <set comment="band 1">
        <r>  0.0053  0.0038  0.0214 </r>
        <r>  0.0051  0.0042  0.2103 </r>
        <r>  0.0310  0.0029  0.1730 </r>
        <r>  0.0065  0.0058  0.3370 </r>
        <r>  0.0109  0.0077  0.0410 </r>
       </set>
       <set comment="band 2">
        <r>  0.0006  0.0010  0.0352 </r>
        <r>  0.0187  0.0039  0.1086 </r>
        <r>  0.0036  0.0042  0.4514 </r>
        <r>  0.0222  0.0027  0.1524 </r>
        <r>  0.0015  0.0020  0.0607 </r>
       </set>
       <set comment="band 3">
        <r>  0.0126  0.0085  0.0442 </r>
        <r>  0.0003  0.0042  0.4361 </r>
        <r>  0.0006  0.0235  0.0041 </r>
        <r>  0.0003  0.0028  0.2846 </r>
        <r>  0.0105  0.0072  0.0360 </r>
       </set>
       <set comment="band 4">
        <r>  0.0000  0.0023  0.0273 </r>
        <r>  0.0010  0.0043  0.1913 </r>
        <r>  0.0000  0.0038  0.3516 </r>
        <r>  0.0007  0.0025  0.2866 </r>
        <r>  0.0002  0.0054  0.0585 </r>
       </set>
       <set comment="band 5">
        <r>  0.0000  0.0031  0.0287 </r>
        <r>  0.0000  0.0025  0.1936 </r>
        <r>  0.0000  0.0001  0.3474 </r>
        <r>  0.0000  0.0010  0.2941 </r>
        <r>  0.0000  0.0067  0.0617 </r>
       </set>
       <set comment="band 6">
        <r>  0.0000  0.0026  0.2189 </r>
        <r>  0.0126  0.0026  0.0637 </r>
        <r>  0.0000  0.0004  0.0154 </r>
        <r>  0.0146  0.0151  0.0738 </r>
        <r>  0.0001  0.0060  0.4452 </r>
       </set>
       <set comment="band 7">
        <r>  0.0013  0.0129  0.2688 </r>
        <r>  0.0019  0.0158  0.2079 </r>
        <r>  0.0019  0.0171  0.0706 </r>
        <r>  0.0004  0.0117  0.1454 </r>
        <r>  0.0011  0.0097  0.1360 </r>
       </set>
       <set comment="band 8">
        <r>  0.0000  0.0090  0.1292 </r>
        <r>  0.0000  0.0009  0.3332 </r>
        <r>  0.0000  0.0217  0.0134 </r>
        <r>  0.0000  0.0058  0.2590 </r>
        <r>  0.0000  0.0107  0.1535 </r>
       </set>
       <set comment="band 9">
        <r>  0.0003  0.0006  0.3064 </r>
        <r>  0.0013  0.0077  0.1459 </r>
        <r>  0.0008  0.0060  0.1055 </r>
        <r>  0.0000  0.0082  0.1144 </r>
        <r>  0.0004  0.0019  0.2014 </r>
       </set>
       <set comment="band 10">
        <r>  0.0005  0.0051  0.2641 </r>
        <r>  0.0029  0.0348  0.0391 </r>
        <r>  0.0000  0.0005  0.2903 </r>
        <r>  0.0031  0.0389  0.0131 </r>
        <r>  0.0003  0.0040  0.2284 </r>
       </set>
       <set comment="band 11">
        <r>  0.0000  0.0056  0.2589 </r>
        <r>  0.0000  0.0369  0.0446 </r>
        <r>  0.0000  0.0003  0.2956 </r>
        <r>  0.0000  0.0408  0.0201 </r>
        <r>  0.0000  0.0045  0.2210 </r>
       </set>
       <set comment="band 12">
        <r>  0.0006  0.0003  0.3039 </r>
        <r>  0.0022  0.0240  0.1106 </r>
        <r>  0.0063  0.0413  0.0203 </r>
        <r>  0.0020  0.0249  0.1143 </r>
        <r>  0.0006  0.0005  0.2719 </r>
       </set>
       <set comment="band 13">
        <r>  0.0000  0.0002  0.2782 </r>
        <r>  0.0000  0.0268  0.1282 </r>
        <r>  0.0000  0.0480  0.0379 </r>
        <r>  0.0000  0.0272  0.1346 </r>
        <r>  0.0000  0.0004  0.2463 </r>
       </set>
       <set comment="band 14">
        <r>  0.0042  0.0004  0.1920 </r>
        <r>  0.0001  0.0007  0.0160 </r>
        <r>  0.0029  0.0049  0.5370 </r>
        <r>  0.0000  0.0008  0.0128 </r>
        <r>  0.0038  0.0005  0.1933 </r>
       </set>
       <set comment="band 15">
        <r>  0.0000  0.0000  0.0738 </r>
        <r>  0.0018  0.0022  0.4040 </r>
        <r>  0.0000  0.0000  0.0009 </r>
        <r>  0.0014  0.0023  0.4118 </r>
        <r>  0.0000  0.0000  0.0771 </r>
       </set>
       <set comment="band 16">
        <r>  0.0051  0.0015  0.3868 </r>
        <r>  0.0000  0.0005  0.0856 </r>
        <r>  0.0000  0.0025  0.0479 </r>
        <r>  0.0000  0.0002  0.0799 </r>
        <r>  0.0043  0.0019  0.3498 </r>
       </set>
       <set comment="band 17">
        <r>  0.0000  0.0000  0.0481 </r>
        <r>  0.0000  0.0012  0.3770 </r>
        <r>  0.0000  0.0000  0.1347 </r>
        <r>  0.0000  0.0007  0.3554 </r>
        <r>  0.0000  0.0002  0.0696 </r>
       </set>
       <set comment="band 18">
        <r>  0.0000  0.0118  0.1984 </r>
        <r>  0.0000  0.0020  0.1727 </r>
        <r>  0.0000  0.0000  0.1413 </r>
        <r>  0.0000  0.0018  0.1817 </r>
        <r>  0.0000  0.0153  0.2382 </r>
       </set>
       <set comment="band 19">
        <r>  0.0000  0.0098  0.2172 </r>
        <r>  0.0001  0.0013  0.1511 </r>
        <r>  0.0000  0.0001  0.1608 </r>
        <r>  0.0001  0.0013  0.1659 </r>
        <r>  0.0000  0.0117  0.2494 </r>
       </set>
       <set comment="band 20">
        <r>  0.0008  0.0014  0.2538 </r>
        <r>  0.0000  0.0000  0.1020 </r>
        <r>  0.0000  0.0004  0.2779 </r>
        <r>  0.0000  0.0000  0.1034 </r>
        <r>  0.0007  0.0013  0.2420 </r>
       </set>
       <set comment="band 21">
        <r>  0.0000  0.0052  0.0786 </r>
        <r>  0.0000  0.0036  0.2193 </r>
        <r>  0.0000  0.0021  0.0834 </r>
        <r>  0.0000  0.0040  0.5152 </r>
        <r>  0.0000  0.0041  0.0661 </r>
       </set>
       <set comment="band 22">
        <r>  0.0000  0.0001  0.0021 </r>
        <r>  0.0000  0.0013  0.4807 </r>
        <r>  0.0000  0.0007  0.1274 </r>
        <r>  0.0000  0.0000  0.3618 </r>
        <r>  0.0000  0.0012  0.0174 </r>
       </set>
       <set comment="band 23">
        <r>  0.0000  0.0004  0.0054 </r>
        <r>  0.0000  0.0001  0.2199 </r>
        <r>  0.0000  0.0021  0.7384 </r>
        <r>  0.0000  0.0000  0.0226 </r>
        <r>  0.0000  0.0002  0.0039 </r>
       </set>
       <set comment="band 24">
        <r>  0.0000  0.0023  0.1782 </r>
        <r>  0.0000  0.0005  0.0245 </r>
        <r>  0.0000  0.0005  0.0432 </r>
        <r>  0.0000  0.0008  0.0499 </r>
        <r>  0.0000  0.0035  0.6878 </r>
       </set>
       <set comment="band 25">
        <r>  0.0000  0.0028  0.7171 </r>
        <r>  0.0000  0.0002  0.0453 </r>
        <r>  0.0000  0.0001  0.0290 </r>
        <r>  0.0000  0.0000  0.0230 </r>
        <r>  0.0000  0.0001  0.1759 </r>
       </set>
       <set comment="band 26">
        <r>  0.0088  0.0632  0.0470 </r>
        <r>  0.0161  0.1174  0.0286 </r>
        <r>  0.0199  0.1462  0.0210 </r>
        <r>  0.0166  0.1230  0.0269 </r>
        <r>  0.0101  0.0742  0.0523 </r>
       </set>
       <set comment="band 27">
        <r>  0.0000  0.0658  0.0355 </r>
        <r>  0.0000  0.1404  0.0268 </r>
        <r>  0.0000  0.1800  0.0239 </r>
        <r>  0.0000  0.1496  0.0255 </r>
        <r>  0.0000  0.0791  0.0410 </r>
       </set>
       <set comment="band 28">
        <r>  0.0242  0.1305  0.0271 </r>
        <r>  0.0181  0.0992  0.0448 </r>
        <r>  0.0000  0.0052  0.0897 </r>
        <r>  0.0165  0.0945  0.0465 </r>
        <r>  0.0230  0.1268  0.0258 </r>
       </set>
       <set comment="band 29">
        <r>  0.0000  0.1641  0.0211 </r>
        <r>  0.0000  0.1302  0.0312 </r>
        <r>  0.0000  0.0002  0.0768 </r>
        <r>  0.0000  0.1221  0.0339 </r>
        <r>  0.0000  0.1604  0.0200 </r>
       </set>
       <set comment="band 30">
        <r>  0.0316  0.1273  0.0223 </r>
        <r>  0.0004  0.0179  0.0830 </r>
        <r>  0.0314  0.1270  0.0306 </r>
        <r>  0.0001  0.0163  0.0828 </r>
        <r>  0.0283  0.1143  0.0210 </r>
       </set>
       <set comment="band 31">
        <r>  0.0000  0.1818  0.0105 </r>
        <r>  0.0000  0.0016  0.0905 </r>
        <r>  0.0000  0.1858  0.0071 </r>
        <r>  0.0000  0.0002  0.0895 </r>
        <r>  0.0000  0.1597  0.0093 </r>
       </set>
       <set comment="band 32">
        <r>  0.0127  0.0809  0.0354 </r>
        <r>  0.0157  0.0843  0.0444 </r>
        <r>  0.0001  0.0451  0.0560 </r>
        <r>  0.0149  0.0775  0.0504 </r>
        <r>  0.0133  0.0807  0.0381 </r>
       </set>
       <set comment="band 33">
        <r>  0.0126  0.0157  0.0191 </r>
        <r>  0.0682  0.0158  0.1145 </r>
        <r>  0.1194  0.0097  0.1864 </r>
        <r>  0.0675  0.0167  0.1174 </r>
        <r>  0.0117  0.0163  0.0194 </r>
       </set>
       <set comment="band 34">
        <r>  0.1053  0.0011  0.0938 </r>
        <r>  0.1060  0.0097  0.0959 </r>
        <r>  0.0000  0.0295  0.0048 </r>
        <r>  0.0871  0.0020  0.0934 </r>
        <r>  0.0782  0.0029  0.0674 </r>
       </set>
       <set comment="band 35">
        <r>  0.0000  0.0978  0.0422 </r>
        <r>  0.0000  0.1466  0.0173 </r>
        <r>  0.0000  0.0008  0.0868 </r>
        <r>  0.0000  0.1276  0.0271 </r>
        <r>  0.0000  0.1003  0.0439 </r>
       </set>
       <set comment="band 36">
        <r>  0.0411  0.0366  0.0592 </r>
        <r>  0.0207  0.0585  0.0062 </r>
        <r>  0.0122  0.0310  0.0160 </r>
        <r>  0.0365  0.0619  0.0073 </r>
        <r>  0.0749  0.0358  0.0818 </r>
       </set>
       <set comment="band 37">
        <r>  0.0244  0.0164  0.0218 </r>
        <r>  0.0771  0.0205  0.1088 </r>
        <r>  0.0558  0.0571  0.1670 </r>
        <r>  0.0757  0.0208  0.1059 </r>
        <r>  0.0242  0.0138  0.0212 </r>
       </set>
       <set comment="band 38">
        <r>  0.0348  0.0170  0.0746 </r>
        <r>  0.0004  0.0338  0.0168 </r>
        <r>  0.1515  0.0181  0.0342 </r>
        <r>  0.0008  0.0577  0.0184 </r>
        <r>  0.0291  0.0094  0.1169 </r>
       </set>
       <set comment="band 39">
        <r>  0.0189  0.0217  0.1215 </r>
        <r>  0.0384  0.0647  0.0911 </r>
        <r>  0.0012  0.0365  0.0149 </r>
        <r>  0.0440  0.0427  0.0905 </r>
        <r>  0.0242  0.0265  0.0928 </r>
       </set>
       <set comment="band 40">
        <r>  0.0458  0.0866  0.0179 </r>
        <r>  0.0800  0.0259  0.0214 </r>
        <r>  0.0001  0.0061  0.0163 </r>
        <r>  0.0724  0.0267  0.0218 </r>
        <r>  0.0362  0.0777  0.0142 </r>
       </set>
       <set comment="band 41">
        <r>  0.0833  0.0634  0.0608 </r>
        <r>  0.0069  0.0454  0.0066 </r>
        <r>  0.0674  0.0173  0.0481 </r>
        <r>  0.0122  0.0330  0.0116 </r>
        <r>  0.0735  0.0716  0.0649 </r>
       </set>
       <set comment="band 42">
        <r>  0.0402  0.0268  0.0102 </r>
        <r>  0.0106  0.0221  0.0196 </r>
        <r>  0.0001  0.0746  0.0154 </r>
        <r>  0.0180  0.0180  0.0206 </r>
        <r>  0.0512  0.0156  0.0128 </r>
       </set>
       <set comment="band 43">
        <r>  0.0000  0.0158  0.0618 </r>
        <r>  0.0000  0.1085  0.0264 </r>
        <r>  0.0000  0.1690  0.0042 </r>
        <r>  0.0000  0.1225  0.0200 </r>
        <r>  0.0000  0.0183  0.0725 </r>
       </set>
       <set comment="band 44">
        <r>  0.0033  0.0821  0.0072 </r>
        <r>  0.0173  0.0217  0.0071 </r>
        <r>  0.0828  0.0126  0.0094 </r>
        <r>  0.0240  0.0082  0.0104 </r>
        <r>  0.0034  0.0666  0.0053 </r>
       </set>
       <set comment="band 45">
        <r>  0.0032  0.0363  0.0207 </r>
        <r>  0.0041  0.0965  0.0143 </r>
        <r>  0.0019  0.0603  0.0056 </r>
        <r>  0.0277  0.0429  0.0033 </r>
        <r>  0.0358  0.0003  0.0223 </r>
       </set>
       <set comment="band 46">
        <r>  0.0302  0.0100  0.0366 </r>
        <r>  0.0509  0.0630  0.0118 </r>
        <r>  0.0007  0.0478  0.0056 </r>
        <r>  0.0186  0.1348  0.0209 </r>
        <r>  0.0008  0.0491  0.0436 </r>
       </set>
       <set comment="band 47">
        <r>  0.0211  0.0558  0.0024 </r>
        <r>  0.0017  0.0433  0.0055 </r>
        <r>  0.0009  0.1682  0.0027 </r>
        <r>  0.0000  0.0539  0.0028 </r>
        <r>  0.0332  0.0775  0.0031 </r>
       </set>
       <set comment="band 48">
        <r>  0.0002  0.0377  0.0041 </r>
        <r>  0.0021  0.0613  0.0072 </r>
        <r>  0.0025  0.0607  0.0095 </r>
        <r>  0.0029  0.0601  0.0071 </r>
        <r>  0.0015  0.0385  0.0052 </r>
       </set>
      </set>
     </set>
    </set>
   </array>
  </projected>
 </calculation>
 <structure name="finalpos" >
  <crystal>
   <varray name="basis" >
    <v>       1.76500000       1.76500000       0.00000000 </v>
    <v>      -1.76500000       1.76500000       0.00000000 </v>
    <v>       0.00000000       0.00000000      17.65000000 </v>
   </varray>
   <i name="volume">    109.96744250 </i>
   <varray name="rec_basis" >
    <v>       0.28328612       0.28328612       0.00000000 </v>
    <v>      -0.28328612       0.28328612       0.00000000 </v>
    <v>       0.00000000       0.00000000       0.05665722 </v>
   </varray>
  </crystal>
  <varray name="positions" >
   <v>       0.00000000       0.00000000       0.00000000 </v>
   <v>       0.50000000       0.50000000       0.10000000 </v>
   <v>       0.00000000       0.00000000       0.20000000 </v>
   <v>       0.50000000       0.50000000       0.30042453 </v>
   <v>       0.00000000       0.00000000       0.39594145 </v>
  </varray>
  <varray name="selective"  type="logical" >
   <v type="logical" >  F  F  F </v>
   <v type="logical" >  F  F  F </v>
   <v type="logical" >  F  F  F </v>
   <v type="logical" >  T  T  T </v>
   <v type="logical" >  T  T  T </v>
  </varray>
  <nose>
   <v>      -3.00000000       0.00000000       0.00010000       0.00010000 </v>
  </nose>
 </structure>
</modeling>
