 vasp.5.4.4.18Apr17-6-g9f103f2a35 (build Apr 07 2018 02:38:49) complex          
  
 executed on             LinuxIFC date 2018.08.01  12:10:13
 running on    8 total cores
 distrk:  each k-point on    8 cores,    1 groups
 distr:  one band on NCORES_PER_BAND=   1 cores,    8 groups


--------------------------------------------------------------------------------------------------------


 INCAR:
 TITEL  = PAW_PBE C 08Apr2002                    
 TITEL  =  PAW_PBE P 17Jan2003                   
 TITEL  = PAW_PBE O 08Apr2002                    

 ----------------------------------------------------------------------------- 
|                                                                             |
|           W    W    AA    RRRRR   N    N  II  N    N   GGGG   !!!           |
|           W    W   A  A   R    R  NN   N  II  NN   N  G    G  !!!           |
|           W    W  A    A  R    R  N N  N  II  N N  N  G       !!!           |
|           W WW W  AAAAAA  RRRRR   N  N N  II  N  N N  G  GGG   !            |
|           WW  WW  A    A  R   R   N   NN  II  N   NN  G    G                |
|           W    W  A    A  R    R  N    N  II  N    N   GGGG   !!!           |
|                                                                             |
|      For optimal performance we recommend to set                            |
|        NCORE= 4 - approx SQRT( number of cores)                             |
|      NCORE specifies how many cores store one orbital (NPAR=cpu/NCORE).     |
|      This setting can  greatly improve the performance of VASP for DFT.     |
|      The default,   NCORE=1            might be grossly inefficient         |
|      on modern multi-core architectures or massively parallel machines.     |
|      Do your own testing !!!!                                               |
|      Unfortunately you need to use the default for GW and RPA calculations. |
|      (for HF NCORE is supported but not extensively tested yet)             |
|                                                                             |
 ----------------------------------------------------------------------------- 

 TITEL  = PAW_PBE C 08Apr2002                    
  local pseudopotential read in
  atomic valenz-charges read in
  non local Contribution for L=           0  read in
    real space projection operators read in
  non local Contribution for L=           0  read in
    real space projection operators read in
  non local Contribution for L=           1  read in
    real space projection operators read in
  non local Contribution for L=           1  read in
    real space projection operators read in
    PAW grid and wavefunctions read in
 
   number of l-projection  operators is LMAX  =           4
   number of lm-projection operators is LMMAX =           8
 
 TITEL  =  PAW_PBE P 17Jan2003                   
  local pseudopotential read in
  partial core-charges read in
  atomic valenz-charges read in
  non local Contribution for L=           0  read in
    real space projection operators read in
  non local Contribution for L=           0  read in
    real space projection operators read in
  non local Contribution for L=           1  read in
    real space projection operators read in
  non local Contribution for L=           1  read in
    real space projection operators read in
    PAW grid and wavefunctions read in
 
   number of l-projection  operators is LMAX  =           4
   number of lm-projection operators is LMMAX =           8
 
 TITEL  = PAW_PBE O 08Apr2002                    
  local pseudopotential read in
  atomic valenz-charges read in
  non local Contribution for L=           0  read in
    real space projection operators read in
  non local Contribution for L=           0  read in
    real space projection operators read in
  non local Contribution for L=           1  read in
    real space projection operators read in
  non local Contribution for L=           1  read in
    real space projection operators read in
    PAW grid and wavefunctions read in
 
   number of l-projection  operators is LMAX  =           4
   number of lm-projection operators is LMMAX =           8
 
 Optimization of the real space projectors (new method)

 maximal supplied QI-value         = 25.13
 optimisation between [QCUT,QGAM] = [ 10.05, 20.36] = [ 28.30,116.06] Ry 
 Optimized for a Real-space Cutoff    1.30 Angstroem

   l    n(q)    QCUT    max X(q) W(low)/X(q) W(high)/X(q)  e(spline) 
   0      8    10.053     5.582    0.43E-04    0.44E-04    0.61E-07
   0      8    10.053    69.432    0.49E-03    0.71E-03    0.18E-06
   1      7    10.053     2.780    0.78E-04    0.13E-03    0.11E-06
   1      7    10.053     4.549    0.23E-03    0.19E-03    0.20E-06
 Optimization of the real space projectors (new method)

 maximal supplied QI-value         = 19.84
 optimisation between [QCUT,QGAM] = [ 10.12, 20.44] = [ 28.68,116.96] Ry 
 Optimized for a Real-space Cutoff    1.23 Angstroem

   l    n(q)    QCUT    max X(q) W(low)/X(q) W(high)/X(q)  e(spline) 
   0      7    10.119     6.651    0.28E-04    0.16E-04    0.42E-08
   0      7    10.119    90.285    0.69E-04    0.27E-03    0.48E-07
   1      7    10.119     4.328    0.40E-04    0.49E-05    0.14E-07
   1      7    10.119    54.583    0.42E-03    0.58E-03    0.12E-06
 Optimization of the real space projectors (new method)

 maximal supplied QI-value         = 24.76
 optimisation between [QCUT,QGAM] = [ 10.15, 20.30] = [ 28.85,115.39] Ry 
 Optimized for a Real-space Cutoff    1.30 Angstroem

   l    n(q)    QCUT    max X(q) W(low)/X(q) W(high)/X(q)  e(spline) 
   0      8    10.150     4.192    0.55E-04    0.58E-04    0.78E-07
   0      8    10.150     8.473    0.46E-03    0.68E-03    0.23E-06
   1      7    10.150     2.474    0.11E-03    0.93E-04    0.33E-07
   1      7    10.150     3.912    0.46E-03    0.50E-03    0.15E-06
 PAW_PBE C 08Apr2002                    :
 energy of atom  1       EATOM= -147.1560
 kinetic energy error for atom=    0.0288 (will be added to EATOM!!)
  PAW_PBE P 17Jan2003                   :
 energy of atom  2       EATOM= -176.0430
 kinetic energy error for atom=    0.0023 (will be added to EATOM!!)
 PAW_PBE O 08Apr2002                    :
 energy of atom  3       EATOM= -432.3788
 kinetic energy error for atom=    0.1156 (will be added to EATOM!!)
 
 
 POSCAR: C    P    O                             
  positions in direct lattice
  velocities in cartesian coordinates
  No initial velocities read in
 exchange correlation table for  LEXCH =        8
   RHO(1)=    0.500       N(1)  =     2000
   RHO(2)=  100.500       N(2)  =     4000

 VTST: version 3.1, (03/28/14)

 CHAIN: initializing optimizer
 
 OPT: Using VASP Dynamics algorithm
 CHAIN: Read ICHAIN            0
 
 POSCAR: C    P    O                             
  positions in direct lattice
  velocities in cartesian coordinates
  No initial velocities read in
 


--------------------------------------------------------------------------------------------------------


 ion  position               nearest neighbor table
   1  0.988  0.991  0.429-   2 1.39  16 1.41   6 1.42
   2  0.103  0.202  0.440-   1 1.39   3 1.41  17 1.93
   3  0.001  0.326  0.436-   2 1.41   4 1.44  12 1.49
   4  0.114  0.547  0.430-   5 1.40   9 1.44   3 1.44
   5  0.001  0.659  0.426-   4 1.40   6 1.41  14 1.41
   6  0.101  0.876  0.425-   7 1.39   5 1.41   1 1.42
   7  0.314  0.991  0.425-   6 1.39  10 1.40  17 2.01
   8  0.458  0.559  0.425-  15 1.39   9 1.40  17 2.00
   9  0.335  0.661  0.425-   8 1.40   4 1.44  10 1.48
  10  0.437  0.888  0.425-   7 1.40  11 1.44   9 1.48
  11  0.658  0.003  0.430-  16 1.40  10 1.44  12 1.44
  12  0.771  0.224  0.436-  13 1.41  11 1.44   3 1.49
  13  0.669  0.348  0.441-  14 1.39  12 1.41  17 1.93
  14  0.784  0.559  0.429-  13 1.39   5 1.41  15 1.42
  15  0.671  0.674  0.425-   8 1.39  16 1.41  14 1.42
  16  0.771  0.891  0.426-  11 1.40  15 1.41   1 1.41
  17  0.386  0.275  0.470-  18 1.62  19 1.62   2 1.93  13 1.93   8 2.00   7 2.01
  18  0.414  0.411  0.559-  17 1.62  19 1.85
  19  0.356  0.136  0.558-  17 1.62  18 1.85
 
  LATTYP: Found a base centered orthorhombic cell.
 ALAT       =     7.6136863109
 B/A-ratio  =     1.6354132715
 C/A-ratio  =     1.9701363292
  
  Lattice vectors:
  
 A1 = (   7.2974033356,   0.0000000000,   0.0000000000)
 A2 = (  -3.3255740843,   6.4955978662,   0.0000000000)
 A3 = (   0.0000000000,   0.0000000000,  15.0000000000)


Analysis of symmetry for initial positions (statically):
=====================================================================
 Subroutine PRICEL returns:
 Original cell was already a primitive cell.
 

 Routine SETGRP: Setting up the symmetry group for a 
 base centered orthorhombic supercell.


 Subroutine GETGRP returns: Found  1 space group operations
 (whereof  1 operations were pure point group operations)
 out of a pool of  8 trial point group operations.


The static configuration has the point symmetry C_1 .


Analysis of symmetry for dynamics (positions and initial velocities):
=====================================================================
 Subroutine PRICEL returns:
 Original cell was already a primitive cell.
 

 Routine SETGRP: Setting up the symmetry group for a 
 base centered orthorhombic supercell.


 Subroutine GETGRP returns: Found  1 space group operations
 (whereof  1 operations were pure point group operations)
 out of a pool of  8 trial point group operations.


The dynamic configuration has the point symmetry C_1 .


Analysis of constrained symmetry for selective dynamics:
=====================================================================
 Subroutine PRICEL returns:
 Original cell was already a primitive cell.
 

 Routine SETGRP: Setting up the symmetry group for a 
 base centered orthorhombic supercell.


 Subroutine GETGRP returns: Found  1 space group operations
 (whereof  1 operations were pure point group operations)
 out of a pool of  8 trial point group operations.


The constrained configuration has the point symmetry C_1 .


Analysis of structural, dynamic, and magnetic symmetry:
=====================================================================
 Subroutine PRICEL returns:
 Original cell was already a primitive cell.
 

 Routine SETGRP: Setting up the symmetry group for a 
 base centered orthorhombic supercell.


 Subroutine GETGRP returns: Found  1 space group operations
 (whereof  1 operations were pure point group operations)
 out of a pool of  8 trial point group operations.


The magnetic configuration has the point symmetry C_1 .


 Subroutine INISYM returns: Found  1 space group operations
 (whereof  1 operations are pure point group operations),
 and found     1 'primitive' translations

 
 
 KPOINTS: K-POINTS                                

Automatic generation of k-mesh.
Space group operators:
 irot       det(A)        alpha          n_x          n_y          n_z        tau_x        tau_y        tau_z
    1     1.000000     0.000000     1.000000     0.000000     0.000000     0.000000     0.000000     0.000000
 
 Subroutine IBZKPT returns following result:
 ===========================================
 
 Found     20 irreducible k-points:
 
 Following reciprocal coordinates:
            Coordinates               Weight
  0.000000  0.000000  0.000000      1.000000
  0.166667  0.000000  0.000000      2.000000
  0.333333  0.000000  0.000000      2.000000
  0.500000  0.000000  0.000000      1.000000
  0.000000  0.166667  0.000000      2.000000
  0.166667  0.166667  0.000000      2.000000
  0.333333  0.166667  0.000000      2.000000
  0.500000  0.166667  0.000000      2.000000
 -0.333333  0.166667  0.000000      2.000000
 -0.166667  0.166667  0.000000      2.000000
  0.000000  0.333333  0.000000      2.000000
  0.166667  0.333333  0.000000      2.000000
  0.333333  0.333333  0.000000      2.000000
  0.500000  0.333333  0.000000      2.000000
 -0.333333  0.333333  0.000000      2.000000
 -0.166667  0.333333  0.000000      2.000000
  0.000000  0.500000  0.000000      1.000000
  0.166667  0.500000  0.000000      2.000000
  0.333333  0.500000  0.000000      2.000000
  0.500000  0.500000  0.000000      1.000000
 
 Following cartesian coordinates:
            Coordinates               Weight
  0.000000  0.000000  0.000000      1.000000
  0.022839  0.011693  0.000000      2.000000
  0.045678  0.023386  0.000000      2.000000
  0.068518  0.035079  0.000000      1.000000
  0.000000  0.025658  0.000000      2.000000
  0.022839  0.037351  0.000000      2.000000
  0.045678  0.049045  0.000000      2.000000
  0.068518  0.060738  0.000000      2.000000
 -0.045678  0.002272  0.000000      2.000000
 -0.022839  0.013965  0.000000      2.000000
  0.000000  0.051317  0.000000      2.000000
  0.022839  0.063010  0.000000      2.000000
  0.045678  0.074703  0.000000      2.000000
  0.068518  0.086396  0.000000      2.000000
 -0.045678  0.027931  0.000000      2.000000
 -0.022839  0.039624  0.000000      2.000000
  0.000000  0.076975  0.000000      1.000000
  0.022839  0.088668  0.000000      2.000000
  0.045678  0.100361  0.000000      2.000000
  0.068518  0.112054  0.000000      1.000000
 
 
 Subroutine IBZKPT_HF returns following result:
 ==============================================
 
 Found     36 k-points in 1st BZ
 the following     36 k-points will be used (e.g. in the exchange kernel)
 Following reciprocal coordinates:   # in IRBZ
  0.000000  0.000000  0.000000    0.02777778   1 t-inv F
  0.166667  0.000000  0.000000    0.02777778   2 t-inv F
  0.333333  0.000000  0.000000    0.02777778   3 t-inv F
  0.500000  0.000000  0.000000    0.02777778   4 t-inv F
  0.000000  0.166667  0.000000    0.02777778   5 t-inv F
  0.166667  0.166667  0.000000    0.02777778   6 t-inv F
  0.333333  0.166667  0.000000    0.02777778   7 t-inv F
  0.500000  0.166667  0.000000    0.02777778   8 t-inv F
 -0.333333  0.166667  0.000000    0.02777778   9 t-inv F
 -0.166667  0.166667  0.000000    0.02777778  10 t-inv F
  0.000000  0.333333  0.000000    0.02777778  11 t-inv F
  0.166667  0.333333  0.000000    0.02777778  12 t-inv F
  0.333333  0.333333  0.000000    0.02777778  13 t-inv F
  0.500000  0.333333  0.000000    0.02777778  14 t-inv F
 -0.333333  0.333333  0.000000    0.02777778  15 t-inv F
 -0.166667  0.333333  0.000000    0.02777778  16 t-inv F
  0.000000  0.500000  0.000000    0.02777778  17 t-inv F
  0.166667  0.500000  0.000000    0.02777778  18 t-inv F
  0.333333  0.500000  0.000000    0.02777778  19 t-inv F
  0.500000  0.500000  0.000000    0.02777778  20 t-inv F
 -0.166667 -0.000000  0.000000    0.02777778   2 t-inv T
 -0.333333 -0.000000  0.000000    0.02777778   3 t-inv T
  0.000000 -0.166667  0.000000    0.02777778   5 t-inv T
 -0.166667 -0.166667  0.000000    0.02777778   6 t-inv T
 -0.333333 -0.166667  0.000000    0.02777778   7 t-inv T
 -0.500000 -0.166667  0.000000    0.02777778   8 t-inv T
  0.333333 -0.166667  0.000000    0.02777778   9 t-inv T
  0.166667 -0.166667  0.000000    0.02777778  10 t-inv T
  0.000000 -0.333333  0.000000    0.02777778  11 t-inv T
 -0.166667 -0.333333  0.000000    0.02777778  12 t-inv T
 -0.333333 -0.333333  0.000000    0.02777778  13 t-inv T
 -0.500000 -0.333333  0.000000    0.02777778  14 t-inv T
  0.333333 -0.333333  0.000000    0.02777778  15 t-inv T
  0.166667 -0.333333  0.000000    0.02777778  16 t-inv T
 -0.166667 -0.500000  0.000000    0.02777778  18 t-inv T
 -0.333333 -0.500000  0.000000    0.02777778  19 t-inv T


--------------------------------------------------------------------------------------------------------




 Dimension of arrays:
   k-points           NKPTS =     20   k-points in BZ     NKDIM =     20   number of bands    NBANDS=     64
   number of dos      NEDOS =    301   number of ions     NIONS =     19
   non local maximal  LDIM  =      4   non local SUM 2l+1 LMDIM =      8
   total plane-waves  NPLWV = 103680
   max r-space proj   IRMAX =   1395   max aug-charges    IRDMAX=   4637
   dimension x,y,z NGX =    36 NGY =   36 NGZ =   80
   dimension x,y,z NGXF=    72 NGYF=   72 NGZF=  160
   support grid    NGXF=    72 NGYF=   72 NGZF=  160
   ions per type =              16   1   2
   NGX,Y,Z   is equivalent  to a cutoff of   8.20,  8.20,  8.87 a.u.
   NGXF,Y,Z  is equivalent  to a cutoff of  16.40, 16.40, 17.73 a.u.

 SYSTEM =  Pt(111)                                 
 POSCAR =  C    P    O                             

 Startparameter for this run:
   NWRITE =      0    write-flag & timer
   PREC   = n         normal or accurate (medium, high low for compatibility)
   ISTART =      0    job   : 0-new  1-cont  2-samecut
   ICHARG =      2    charge: 1-file 2-atom 10-const
   ISPIN  =      2    spin polarized calculation?
   LNONCOLLINEAR =      F non collinear calculations
   LSORBIT =      F    spin-orbit coupling
   INIWAV =      1    electr: 0-lowe 1-rand  2-diag
   LASPH  =      F    aspherical Exc in radial PAW
   METAGGA=      F    non-selfconsistent MetaGGA calc.

 Electronic Relaxation 1
   ENCUT  =  400.0 eV  29.40 Ry    5.42 a.u.  11.90 11.90 24.46*2*pi/ulx,y,z
   ENINI  =  400.0     initial cutoff
   ENAUG  =  644.9 eV  augmentation charge cutoff
   NELM   =    100;   NELMIN=  2; NELMDL=  0     # of ELM steps 
   EDIFF  = 0.1E-05   stopping-criterion for ELM
   LREAL  =      T    real-space projection
   NLSPLINE    = F    spline interpolate recip. space projectors
   LCOMPAT=      F    compatible to vasp.4.4
   GGA_COMPAT  = T    GGA compatible to vasp.4.4-vasp.4.6
   LMAXPAW     = -100 max onsite density
   LMAXMIX     =    2 max onsite mixed and CHGCAR
   VOSKOWN=      0    Vosko Wilk Nusair interpolation
   ROPT   =   -0.00050  -0.00050  -0.00050
 Ionic relaxation
   EDIFFG = 0.1E-04   stopping-criterion for IOM
   NSW    =    265    number of steps for IOM
   NBLOCK =      1;   KBLOCK =    265    inner block; outer block 
   IBRION =      5    ionic relax: 0-MD 1-quasi-New 2-CG
   NFREE  =      2    steps in history (QN), initial steepest desc. (CG)
   ISIF   =      2    stress and relaxation
   IWAVPR =     11    prediction:  0-non 1-charg 2-wave 3-comb
   ISYM   =      2    0-nonsym 1-usesym 2-fastsym
   LCORR  =      T    Harris-Foulkes like correction to forces

   POTIM  = 0.0200    time-step for ionic-motion
   TEIN   =    0.0    initial temperature
   TEBEG  =    0.0;   TEEND  =   0.0 temperature during run
   SMASS  =  -3.00    Nose mass-parameter (am)
   estimated Nose-frequenzy (Omega)   =  0.10E-29 period in steps =****** mass=  -0.122E-26a.u.
   SCALEE = 1.0000    scale energy and forces
   NPACO  =    256;   APACO  = 16.0  distance and # of slots for P.C.
   PSTRESS=    0.0 pullay stress

  Mass of Ions in am
   POMASS =  12.01 30.97 16.00
  Ionic Valenz
   ZVAL   =   4.00  5.00  6.00
  Atomic Wigner-Seitz radii
   RWIGS  =  -1.00 -1.00 -1.00
  virtual crystal weights 
   VCA    =   1.00  1.00  1.00
   NELECT =      81.0000    total number of electrons
   NUPDOWN=      -1.0000    fix difference up-down

 DOS related values:
   EMIN   =  10.00;   EMAX   =-10.00  energy-range for DOS
   EFERMI =   0.00
   ISMEAR =     0;   SIGMA  =   0.05  broadening in eV -4-tet -1-fermi 0-gaus

 Electronic relaxation 2 (details)
   IALGO  =     68    algorithm
   LDIAG  =      T    sub-space diagonalisation (order eigenvalues)
   LSUBROT=      F    optimize rotation matrix (better conditioning)
   TURBO    =      0    0=normal 1=particle mesh
   IRESTART =      0    0=no restart 2=restart with 2 vectors
   NREBOOT  =      0    no. of reboots
   NMIN     =      0    reboot dimension
   EREF     =   0.00    reference energy to select bands
   IMIX   =      4    mixing-type and parameters
     AMIX     =   0.40;   BMIX     =  1.00
     AMIX_MAG =   1.60;   BMIX_MAG =  1.00
     AMIN     =   0.10
     WC   =   100.;   INIMIX=   1;  MIXPRE=   1;  MAXMIX= -45

 Intra band minimization:
   WEIMIN = 0.0010     energy-eigenvalue tresh-hold
   EBREAK =  0.39E-08  absolut break condition
   DEPER  =   0.30     relativ break condition  

   TIME   =   0.40     timestep for ELM

  volume/ion in A,a.u.               =      37.42       252.54
  Fermi-wavevector in a.u.,A,eV,Ry     =   0.793616  1.499716  8.569302  0.629826
  Thomas-Fermi vector in A             =   1.899586
 
 Write flags
   LWAVE        =      F    write WAVECAR
   LDOWNSAMPLE  =      F    k-point downsampling of WAVECAR
   LCHARG       =      F    write CHGCAR
   LVTOT        =      F    write LOCPOT, total local potential
   LVHAR        =      F    write LOCPOT, Hartree potential only
   LELF         =      F    write electronic localiz. function (ELF)
   LORBIT       =      0    0 simple, 1 ext, 2 COOP (PROOUT), +10 PAW based schemes


 Dipole corrections
   LMONO  =      F    monopole corrections only (constant potential shift)
   LDIPOL =      F    correct potential (dipole corrections)
   IDIPOL =      0    1-x, 2-y, 3-z, 4-all directions 
   EPSILON=  1.0000000 bulk dielectric constant

 Exchange correlation treatment:
   GGA     =    --    GGA type
   LEXCH   =     8    internal setting for exchange type
   VOSKOWN=      0    Vosko Wilk Nusair interpolation
   LHFCALC =     F    Hartree Fock is set to
   LHFONE  =     F    Hartree Fock one center treatment
   AEXX    =    0.0000 exact exchange contribution

 Linear response parameters
   LEPSILON=     F    determine dielectric tensor
   LRPA    =     F    only Hartree local field effects (RPA)
   LNABLA  =     F    use nabla operator in PAW spheres
   LVEL    =     F    velocity operator in full k-point grid
   LINTERFAST=   F  fast interpolation
   KINTER  =     0    interpolate to denser k-point grid
   CSHIFT  =0.1000    complex shift for real part using Kramers Kronig
   OMEGAMAX=  -1.0    maximum frequency
   DEG_THRESHOLD= 0.2000000E-02 threshold for treating states as degnerate
   RTIME   =   -0.100 relaxation time in fs
  (WPLASMAI=    0.000 imaginary part of plasma frequency in eV, 0.658/RTIME)
   DFIELD  = 0.0000000 0.0000000 0.0000000 field for delta impulse in time
 
 Orbital magnetization related:
   ORBITALMAG=     F  switch on orbital magnetization
   LCHIMAG   =     F  perturbation theory with respect to B field
   DQ        =  0.001000  dq finite difference perturbation B field
   LLRAUG    =     F  two centre corrections for induced B field



--------------------------------------------------------------------------------------------------------


 finite differences
   using selective dynamics as specified on POSCAR
 charge density and potential will be updated during run
 spin polarized calculation
 RMM-DIIS sequential band-by-band and
  variant of blocked Davidson during initial phase
 perform sub-space diagonalisation
    before iterative eigenvector-optimisation
 modified Broyden-mixing scheme, WC =      100.0
 initial mixing is a Kerker type mixing with AMIX =  0.4000 and BMIX =      1.0000
 Hartree-type preconditioning will be used
 using additional bands           23
 real space projection scheme for non local part
 use partial core corrections
 calculate Harris-corrections to forces 
   (improved forces if not selfconsistent)
 use gradient corrections 
 use of overlap-Matrix (Vanderbilt PP)
 Gauss-broadening in eV      SIGMA  =   0.05


--------------------------------------------------------------------------------------------------------


  energy-cutoff  :      400.00
  volume of cell :      711.01
      direct lattice vectors                 reciprocal lattice vectors
     7.297403336  0.000000000  0.000000000     0.137035046  0.070158314  0.000000000
    -3.325574084  6.495597866  0.000000000     0.000000000  0.153950417  0.000000000
     0.000000000  0.000000000 15.000000000     0.000000000  0.000000000  0.066666667

  length of vectors
     7.297403336  7.297412872 15.000000000     0.153950618  0.153950417  0.066666667


 
 k-points in units of 2pi/SCALE and weight: K-POINTS                                
   0.00000000  0.00000000  0.00000000       0.028
   0.02283917  0.01169305  0.00000000       0.056
   0.04567835  0.02338610  0.00000000       0.056
   0.06851752  0.03507916  0.00000000       0.028
   0.00000000  0.02565840  0.00000000       0.056
   0.02283917  0.03735146  0.00000000       0.056
   0.04567835  0.04904451  0.00000000       0.056
   0.06851752  0.06073756  0.00000000       0.056
  -0.04567835  0.00227230  0.00000000       0.056
  -0.02283917  0.01396535  0.00000000       0.056
   0.00000000  0.05131681  0.00000000       0.056
   0.02283917  0.06300986  0.00000000       0.056
   0.04567835  0.07470291  0.00000000       0.056
   0.06851752  0.08639596  0.00000000       0.056
  -0.04567835  0.02793070  0.00000000       0.056
  -0.02283917  0.03962375  0.00000000       0.056
   0.00000000  0.07697521  0.00000000       0.028
   0.02283917  0.08866826  0.00000000       0.056
   0.04567835  0.10036131  0.00000000       0.056
   0.06851752  0.11205437  0.00000000       0.028
 
 k-points in reciprocal lattice and weights: K-POINTS                                
   0.00000000  0.00000000  0.00000000       0.028
   0.16666667  0.00000000  0.00000000       0.056
   0.33333333  0.00000000  0.00000000       0.056
   0.50000000  0.00000000  0.00000000       0.028
   0.00000000  0.16666667  0.00000000       0.056
   0.16666667  0.16666667  0.00000000       0.056
   0.33333333  0.16666667  0.00000000       0.056
   0.50000000  0.16666667  0.00000000       0.056
  -0.33333333  0.16666667  0.00000000       0.056
  -0.16666667  0.16666667  0.00000000       0.056
   0.00000000  0.33333333  0.00000000       0.056
   0.16666667  0.33333333  0.00000000       0.056
   0.33333333  0.33333333  0.00000000       0.056
   0.50000000  0.33333333  0.00000000       0.056
  -0.33333333  0.33333333  0.00000000       0.056
  -0.16666667  0.33333333  0.00000000       0.056
   0.00000000  0.50000000  0.00000000       0.028
   0.16666667  0.50000000  0.00000000       0.056
   0.33333333  0.50000000  0.00000000       0.056
   0.50000000  0.50000000  0.00000000       0.028
 
 position of ions in fractional coordinates (direct lattice) 
   0.98839411  0.99122912  0.42898846
   0.10283950  0.20213724  0.44048112
   0.00053480  0.32564399  0.43561370
   0.11389200  0.54692791  0.42986910
   0.00084385  0.65872953  0.42624868
   0.10118289  0.87590473  0.42495062
   0.31408195  0.99079945  0.42467141
   0.45795607  0.55894644  0.42500422
   0.33493857  0.66120516  0.42547653
   0.43706292  0.88847657  0.42540882
   0.65803873  0.00282655  0.42989058
   0.77125071  0.22412181  0.43570804
   0.66903217  0.34769633  0.44080539
   0.78359018  0.55860091  0.42922360
   0.67080092  0.67390756  0.42517155
   0.77114546  0.89108650  0.42625256
   0.38584173  0.27532615  0.46960817
   0.41368305  0.41082715  0.55899727
   0.35595446  0.13589211  0.55796210
 
 position of ions in cartesian coordinates  (Angst):
   3.91630458  6.43862574  6.43482691
   0.07823895  1.31300222  6.60721675
  -1.07905056  2.11525244  6.53420556
  -0.98773338  3.55262375  6.44803648
  -2.18449593  4.27884212  6.39373021
  -2.17451372  5.68952489  6.37425937
  -1.00299434  6.43583479  6.37007120
   1.48307236  3.63069128  6.37506324
   0.24529509  4.29492282  6.38214792
   0.23472977  5.77118653  6.38113233
   4.79257415  0.01836012  6.44835876
   4.88279380  1.45580514  6.53562058
   3.72590769  2.25849553  6.61208091
   3.86050487  3.62844689  6.43835406
   2.65397536  4.37743253  6.37757326
   2.66398532  5.78813955  6.39378835
   1.90002525  1.78840797  7.04412249
   1.65257592  2.66856795  8.38495905
   2.14562402  0.88270047  8.36943143
 


--------------------------------------------------------------------------------------------------------


 k-point  1 :   0.0000 0.0000 0.0000  plane waves:   12969
 k-point  2 :   0.1667 0.0000 0.0000  plane waves:   12912
 k-point  3 :   0.3333 0.0000 0.0000  plane waves:   12910
 k-point  4 :   0.5000 0.0000 0.0000  plane waves:   12908
 k-point  5 :   0.0000 0.1667 0.0000  plane waves:   12912
 k-point  6 :   0.1667 0.1667 0.0000  plane waves:   12903
 k-point  7 :   0.3333 0.1667 0.0000  plane waves:   12901
 k-point  8 :   0.5000 0.1667 0.0000  plane waves:   12921
 k-point  9 :  -0.3333 0.1667 0.0000  plane waves:   12927
 k-point 10 :  -0.1667 0.1667 0.0000  plane waves:   12928
 k-point 11 :   0.0000 0.3333 0.0000  plane waves:   12910
 k-point 12 :   0.1667 0.3333 0.0000  plane waves:   12901
 k-point 13 :   0.3333 0.3333 0.0000  plane waves:   12934
 k-point 14 :   0.5000 0.3333 0.0000  plane waves:   12956
 k-point 15 :  -0.3333 0.3333 0.0000  plane waves:   12950
 k-point 16 :  -0.1667 0.3333 0.0000  plane waves:   12927
 k-point 17 :   0.0000 0.5000 0.0000  plane waves:   12908
 k-point 18 :   0.1667 0.5000 0.0000  plane waves:   12921
 k-point 19 :   0.3333 0.5000 0.0000  plane waves:   12956
 k-point 20 :   0.5000 0.5000 0.0000  plane waves:   12948

 maximum and minimum number of plane-waves per node :     12969    12901

 maximum number of plane-waves:     12969
 maximum index in each direction: 
   IXMAX=   12   IYMAX=   11   IZMAX=   24
   IXMIN=  -12   IYMIN=  -12   IZMIN=  -24


 serial   3D FFT for wavefunctions
 parallel 3D FFT for charge:
    minimum data exchange during FFTs selected (reduces bandwidth)


 total amount of memory used by VASP MPI-rank0   121012. kBytes
=======================================================================

   base      :      30000. kBytes
   nonlr-proj:       2166. kBytes
   fftplans  :       3962. kBytes
   grid      :      17553. kBytes
   one-center:        116. kBytes
   wavefun   :      67215. kBytes
 
     INWAV:  cpu time    0.0000: real time    0.0000
 Broyden mixing: mesh for mixing (old mesh)
   NGX = 23   NGY = 23   NGZ = 49
  (NGX  = 72   NGY  = 72   NGZ  =160)
  gives a total of  25921 points

 initial charge density was supplied:
 charge density of overlapping atoms calculated
 number of electron      81.0000000 magnetization      19.0000000
 keeping initial charge density in first step


--------------------------------------------------------------------------------------------------------


 Maximum index for non-local projection operator         1315
 Maximum index for augmentation-charges          521 (set IRDMAX)


--------------------------------------------------------------------------------------------------------


 First call to EWALD:  gamma=   0.199
 Maximum number of real-space cells 4x 4x 2
 Maximum number of reciprocal cells 2x 2x 4

    FEWALD:  cpu time    0.0020: real time    0.0024


--------------------------------------- Iteration      1(   1)  ---------------------------------------


    POTLOK:  cpu time    0.2050: real time    0.2157
    SETDIJ:  cpu time    0.0170: real time    0.0170
     EDDAV:  cpu time   10.2364: real time   10.2381
       DOS:  cpu time    0.0020: real time    0.0015
    --------------------------------------------
      LOOP:  cpu time   10.4604: real time   10.4722

 eigenvalue-minimisations  :  5512
 total energy-change (2. order) : 0.6181869E+03  (-0.2826741E+04)
 number of electron      81.0000000 magnetization      19.0000000
 augmentation part       81.0000000 magnetization      19.0000000

 Free energy of the ion-electron system (eV)
  ---------------------------------------------------
  alpha Z        PSCENC =        44.68959166
  Ewald energy   TEWEN  =      8160.01248976
  -Hartree energ DENC   =    -10836.66176234
  -exchange      EXHF   =         0.00000000
  -V(xc)+E(xc)   XCENC  =       282.14530633
  PAW double counting   =      1143.57409810    -1157.35160088
  entropy T*S    EENTRO =        -0.00822013
  eigenvalues    EBANDS =      -412.81572713
  atomic energy  EATOM  =      3394.60269404
  Solvation  Ediel_sol  =         0.00000000
  ---------------------------------------------------
  free energy    TOTEN  =       618.18686941 eV

  energy without entropy =      618.19508954  energy(sigma->0) =      618.19097947


--------------------------------------------------------------------------------------------------------




--------------------------------------- Iteration      1(   2)  ---------------------------------------


     EDDAV:  cpu time   13.4050: real time   13.4110
       DOS:  cpu time    0.0010: real time    0.0013
    --------------------------------------------
      LOOP:  cpu time   13.4060: real time   13.4124

 eigenvalue-minimisations  :  7720
 total energy-change (2. order) :-0.6812131E+03  (-0.6462443E+03)
 number of electron      81.0000000 magnetization      19.0000000
 augmentation part       81.0000000 magnetization      19.0000000

 Free energy of the ion-electron system (eV)
  ---------------------------------------------------
  alpha Z        PSCENC =        44.68959166
  Ewald energy   TEWEN  =      8160.01248976
  -Hartree energ DENC   =    -10836.66176234
  -exchange      EXHF   =         0.00000000
  -V(xc)+E(xc)   XCENC  =       282.14530633
  PAW double counting   =      1143.57409810    -1157.35160088
  entropy T*S    EENTRO =        -0.00398242
  eigenvalues    EBANDS =     -1094.03302393
  atomic energy  EATOM  =      3394.60269404
  Solvation  Ediel_sol  =         0.00000000
  ---------------------------------------------------
  free energy    TOTEN  =       -63.02618967 eV

  energy without entropy =      -63.02220726  energy(sigma->0) =      -63.02419847


--------------------------------------------------------------------------------------------------------




--------------------------------------- Iteration      1(   3)  ---------------------------------------


     EDDAV:  cpu time   11.2683: real time   11.2716
       DOS:  cpu time    0.0020: real time    0.0014
    --------------------------------------------
      LOOP:  cpu time   11.2703: real time   11.2729

 eigenvalue-minimisations  :  6264
 total energy-change (2. order) :-0.9631277E+02  (-0.9516286E+02)
 number of electron      81.0000000 magnetization      19.0000000
 augmentation part       81.0000000 magnetization      19.0000000

 Free energy of the ion-electron system (eV)
  ---------------------------------------------------
  alpha Z        PSCENC =        44.68959166
  Ewald energy   TEWEN  =      8160.01248976
  -Hartree energ DENC   =    -10836.66176234
  -exchange      EXHF   =         0.00000000
  -V(xc)+E(xc)   XCENC  =       282.14530633
  PAW double counting   =      1143.57409810    -1157.35160088
  entropy T*S    EENTRO =        -0.00576967
  eigenvalues    EBANDS =     -1190.34400978
  atomic energy  EATOM  =      3394.60269404
  Solvation  Ediel_sol  =         0.00000000
  ---------------------------------------------------
  free energy    TOTEN  =      -159.33896278 eV

  energy without entropy =     -159.33319311  energy(sigma->0) =     -159.33607795


--------------------------------------------------------------------------------------------------------




--------------------------------------- Iteration      1(   4)  ---------------------------------------


     EDDAV:  cpu time   11.4793: real time   11.4834
       DOS:  cpu time    0.0020: real time    0.0014
    --------------------------------------------
      LOOP:  cpu time   11.4813: real time   11.4848

 eigenvalue-minimisations  :  6424
 total energy-change (2. order) :-0.2720102E+01  (-0.2702751E+01)
 number of electron      81.0000000 magnetization      19.0000000
 augmentation part       81.0000000 magnetization      19.0000000

 Free energy of the ion-electron system (eV)
  ---------------------------------------------------
  alpha Z        PSCENC =        44.68959166
  Ewald energy   TEWEN  =      8160.01248976
  -Hartree energ DENC   =    -10836.66176234
  -exchange      EXHF   =         0.00000000
  -V(xc)+E(xc)   XCENC  =       282.14530633
  PAW double counting   =      1143.57409810    -1157.35160088
  entropy T*S    EENTRO =        -0.00756524
  eigenvalues    EBANDS =     -1193.06231600
  atomic energy  EATOM  =      3394.60269404
  Solvation  Ediel_sol  =         0.00000000
  ---------------------------------------------------
  free energy    TOTEN  =      -162.05906458 eV

  energy without entropy =     -162.05149933  energy(sigma->0) =     -162.05528195


--------------------------------------------------------------------------------------------------------




--------------------------------------- Iteration      1(   5)  ---------------------------------------


     EDDAV:  cpu time   12.4251: real time   12.4291
       DOS:  cpu time    0.0010: real time    0.0014
    CHARGE:  cpu time    0.4779: real time    0.4779
    MIXING:  cpu time    0.0040: real time    0.0037
    --------------------------------------------
      LOOP:  cpu time   12.9080: real time   12.9121

 eigenvalue-minimisations  :  7168
 total energy-change (2. order) :-0.8728426E-01  (-0.8710213E-01)
 number of electron      81.0000038 magnetization      14.8204411
 augmentation part        2.5206396 magnetization      13.5064726

 Broyden mixing:
  rms(total) = 0.26112E+01    rms(broyden)= 0.26082E+01
  rms(prec ) = 0.27878E+01
  weight for this iteration     100.00

 Free energy of the ion-electron system (eV)
  ---------------------------------------------------
  alpha Z        PSCENC =        44.68959166
  Ewald energy   TEWEN  =      8160.01248976
  -Hartree energ DENC   =    -10836.66176234
  -exchange      EXHF   =         0.00000000
  -V(xc)+E(xc)   XCENC  =       282.14530633
  PAW double counting   =      1143.57409810    -1157.35160088
  entropy T*S    EENTRO =        -0.00752505
  eigenvalues    EBANDS =     -1193.14964045
  atomic energy  EATOM  =      3394.60269404
  Solvation  Ediel_sol  =         0.00000000
  ---------------------------------------------------
  free energy    TOTEN  =      -162.14634884 eV

  energy without entropy =     -162.13882379  energy(sigma->0) =     -162.14258631


--------------------------------------------------------------------------------------------------------




--------------------------------------- Iteration      1(   6)  ---------------------------------------


    POTLOK:  cpu time    0.1890: real time    0.1900
    SETDIJ:  cpu time    0.0160: real time    0.0162
    EDDIAG:  cpu time    1.9027: real time    1.9030
  RMM-DIIS:  cpu time    5.8911: real time    5.8919
    ORTHCH:  cpu time    0.3329: real time    0.3337
       DOS:  cpu time    0.0020: real time    0.0014
    CHARGE:  cpu time    0.4679: real time    0.4685
    MIXING:  cpu time    0.0040: real time    0.0038
    --------------------------------------------
      LOOP:  cpu time    8.8057: real time    8.8085

 eigenvalue-minimisations  :  5120
 total energy-change (2. order) : 0.4921864E+02  (-0.6589852E+01)
 number of electron      81.0000036 magnetization      10.5163222
 augmentation part        2.3264984 magnetization       9.4095914

 Broyden mixing:
  rms(total) = 0.13930E+01    rms(broyden)= 0.13924E+01
  rms(prec ) = 0.15229E+01
  weight for this iteration     100.00

 eigenvalues of (default mixing * dielectric matrix)
  average eigenvalue GAMMA=   1.0570
  1.0570

 Free energy of the ion-electron system (eV)
  ---------------------------------------------------
  alpha Z        PSCENC =        44.68959166
  Ewald energy   TEWEN  =      8160.01248976
  -Hartree energ DENC   =    -10936.45584110
  -exchange      EXHF   =         0.00000000
  -V(xc)+E(xc)   XCENC  =       318.82801809
  PAW double counting   =      1410.38609469    -1425.82900675
  entropy T*S    EENTRO =        -0.00473255
  eigenvalues    EBANDS =     -1079.15701610
  atomic energy  EATOM  =      3394.60269404
  Solvation  Ediel_sol  =         0.00000000
  ---------------------------------------------------
  free energy    TOTEN  =      -112.92770827 eV

  energy without entropy =     -112.92297572  energy(sigma->0) =     -112.92534199


--------------------------------------------------------------------------------------------------------




--------------------------------------- Iteration      1(   7)  ---------------------------------------


    POTLOK:  cpu time    0.1840: real time    0.1839
    SETDIJ:  cpu time    0.0160: real time    0.0160
    EDDIAG:  cpu time    1.7727: real time    1.7733
  RMM-DIIS:  cpu time    5.7621: real time    5.7623
    ORTHCH:  cpu time    0.3309: real time    0.3314
       DOS:  cpu time    0.0010: real time    0.0014
    CHARGE:  cpu time    0.4839: real time    0.4834
    MIXING:  cpu time    0.0040: real time    0.0039
    --------------------------------------------
      LOOP:  cpu time    8.5547: real time    8.5556

 eigenvalue-minimisations  :  5120
 total energy-change (2. order) :-0.1433160E+02  (-0.1249496E+01)
 number of electron      81.0000034 magnetization       6.9056750
 augmentation part        2.2699747 magnetization       5.8949274

 Broyden mixing:
  rms(total) = 0.73483E+00    rms(broyden)= 0.73451E+00
  rms(prec ) = 0.78011E+00
  weight for this iteration     100.00

 eigenvalues of (default mixing * dielectric matrix)
  average eigenvalue GAMMA=   1.2166
  0.8463  1.5869

 Free energy of the ion-electron system (eV)
  ---------------------------------------------------
  alpha Z        PSCENC =        44.68959166
  Ewald energy   TEWEN  =      8160.01248976
  -Hartree energ DENC   =    -11029.57678064
  -exchange      EXHF   =         0.00000000
  -V(xc)+E(xc)   XCENC  =       310.14149492
  PAW double counting   =      1618.26055692    -1634.54950645
  entropy T*S    EENTRO =        -0.00393742
  eigenvalues    EBANDS =      -990.83591208
  atomic energy  EATOM  =      3394.60269404
  Solvation  Ediel_sol  =         0.00000000
  ---------------------------------------------------
  free energy    TOTEN  =      -127.25930929 eV

  energy without entropy =     -127.25537187  energy(sigma->0) =     -127.25734058


--------------------------------------------------------------------------------------------------------




--------------------------------------- Iteration      1(   8)  ---------------------------------------


    POTLOK:  cpu time    0.1940: real time    0.1945
    SETDIJ:  cpu time    0.0170: real time    0.0166
    EDDIAG:  cpu time    1.9157: real time    1.9165
  RMM-DIIS:  cpu time    5.1802: real time    5.1805
    ORTHCH:  cpu time    0.3220: real time    0.3218
       DOS:  cpu time    0.0010: real time    0.0014
    CHARGE:  cpu time    0.4679: real time    0.4679
    MIXING:  cpu time    0.0040: real time    0.0039
    --------------------------------------------
      LOOP:  cpu time    8.1018: real time    8.1030

 eigenvalue-minimisations  :  5120
 total energy-change (2. order) :-0.1187921E+02  (-0.7741326E+00)
 number of electron      81.0000033 magnetization       4.6097991
 augmentation part        2.1840801 magnetization       3.9275361

 Broyden mixing:
  rms(total) = 0.44451E+00    rms(broyden)= 0.44436E+00
  rms(prec ) = 0.45914E+00
  weight for this iteration     100.00

 eigenvalues of (default mixing * dielectric matrix)
  average eigenvalue GAMMA=   1.3157
  2.0275  1.1744  0.7451

 Free energy of the ion-electron system (eV)
  ---------------------------------------------------
  alpha Z        PSCENC =        44.68959166
  Ewald energy   TEWEN  =      8160.01248976
  -Hartree energ DENC   =    -11088.80038702
  -exchange      EXHF   =         0.00000000
  -V(xc)+E(xc)   XCENC  =       303.71522981
  PAW double counting   =      1739.45225215    -1756.04333089
  entropy T*S    EENTRO =        -0.00413129
  eigenvalues    EBANDS =      -936.76292655
  atomic energy  EATOM  =      3394.60269404
  Solvation  Ediel_sol  =         0.00000000
  ---------------------------------------------------
  free energy    TOTEN  =      -139.13851833 eV

  energy without entropy =     -139.13438704  energy(sigma->0) =     -139.13645269


--------------------------------------------------------------------------------------------------------




--------------------------------------- Iteration      1(   9)  ---------------------------------------


    POTLOK:  cpu time    0.5669: real time    0.5676
    SETDIJ:  cpu time    0.0160: real time    0.0158
    EDDIAG:  cpu time    1.6997: real time    1.7003
  RMM-DIIS:  cpu time    5.4212: real time    5.4219
    ORTHCH:  cpu time    0.3359: real time    0.3353
       DOS:  cpu time    0.0010: real time    0.0014
    CHARGE:  cpu time    0.4729: real time    0.4732
    MIXING:  cpu time    0.0050: real time    0.0045
    --------------------------------------------
      LOOP:  cpu time    8.5187: real time    8.5201

 eigenvalue-minimisations  :  5145
 total energy-change (2. order) :-0.8033307E+01  (-0.4381530E+00)
 number of electron      81.0000033 magnetization       2.3750246
 augmentation part        2.1941459 magnetization       1.9665418

 Broyden mixing:
  rms(total) = 0.29341E+00    rms(broyden)= 0.29324E+00
  rms(prec ) = 0.30522E+00
  weight for this iteration     100.00

 eigenvalues of (default mixing * dielectric matrix)
  average eigenvalue GAMMA=   1.4211
  2.5087  1.5364  0.9195  0.7198

 Free energy of the ion-electron system (eV)
  ---------------------------------------------------
  alpha Z        PSCENC =        44.68959166
  Ewald energy   TEWEN  =      8160.01248976
  -Hartree energ DENC   =    -11102.49975689
  -exchange      EXHF   =         0.00000000
  -V(xc)+E(xc)   XCENC  =       298.52339175
  PAW double counting   =      1750.12844608    -1766.51033083
  entropy T*S    EENTRO =        -0.00384772
  eigenvalues    EBANDS =      -926.11450289
  atomic energy  EATOM  =      3394.60269404
  Solvation  Ediel_sol  =         0.00000000
  ---------------------------------------------------
  free energy    TOTEN  =      -147.17182504 eV

  energy without entropy =     -147.16797732  energy(sigma->0) =     -147.16990118


--------------------------------------------------------------------------------------------------------




--------------------------------------- Iteration      1(  10)  ---------------------------------------


    POTLOK:  cpu time    0.1840: real time    0.1841
    SETDIJ:  cpu time    0.0160: real time    0.0162
    EDDIAG:  cpu time    1.9307: real time    1.9312
  RMM-DIIS:  cpu time    5.7991: real time    5.7999
    ORTHCH:  cpu time    0.3389: real time    0.3391
       DOS:  cpu time    0.0020: real time    0.0014
    CHARGE:  cpu time    0.4749: real time    0.4758
    MIXING:  cpu time    0.0050: real time    0.0047
    --------------------------------------------
      LOOP:  cpu time    8.7507: real time    8.7523

 eigenvalue-minimisations  :  5120
 total energy-change (2. order) :-0.6583205E+01  (-0.4757936E+00)
 number of electron      81.0000033 magnetization       0.8762904
 augmentation part        2.1709306 magnetization       0.6956523

 Broyden mixing:
  rms(total) = 0.16685E+00    rms(broyden)= 0.16665E+00
  rms(prec ) = 0.17957E+00
  weight for this iteration     100.00

 eigenvalues of (default mixing * dielectric matrix)
  average eigenvalue GAMMA=   1.5755
  3.4918  1.8745  1.0098  0.8510  0.6506

 Free energy of the ion-electron system (eV)
  ---------------------------------------------------
  alpha Z        PSCENC =        44.68959166
  Ewald energy   TEWEN  =      8160.01248976
  -Hartree energ DENC   =    -11107.21681384
  -exchange      EXHF   =         0.00000000
  -V(xc)+E(xc)   XCENC  =       294.02468488
  PAW double counting   =      1742.87860397    -1759.00502951
  entropy T*S    EENTRO =        -0.00235442
  eigenvalues    EBANDS =      -923.73889658
  atomic energy  EATOM  =      3394.60269404
  Solvation  Ediel_sol  =         0.00000000
  ---------------------------------------------------
  free energy    TOTEN  =      -153.75503004 eV

  energy without entropy =     -153.75267562  energy(sigma->0) =     -153.75385283


--------------------------------------------------------------------------------------------------------




--------------------------------------- Iteration      1(  11)  ---------------------------------------


    POTLOK:  cpu time    0.1840: real time    0.1858
    SETDIJ:  cpu time    0.0160: real time    0.0161
    EDDIAG:  cpu time    1.9137: real time    1.9140
  RMM-DIIS:  cpu time    5.7281: real time    5.7290
    ORTHCH:  cpu time    0.3419: real time    0.3423
       DOS:  cpu time    0.0020: real time    0.0014
    CHARGE:  cpu time    0.4709: real time    0.4709
    MIXING:  cpu time    0.0040: real time    0.0048
    --------------------------------------------
      LOOP:  cpu time    8.6607: real time    8.6643

 eigenvalue-minimisations  :  5120
 total energy-change (2. order) :-0.3371823E+01  (-0.2543111E+00)
 number of electron      81.0000033 magnetization       0.4883362
 augmentation part        2.1699030 magnetization       0.3963329

 Broyden mixing:
  rms(total) = 0.83712E-01    rms(broyden)= 0.83426E-01
  rms(prec ) = 0.97128E-01
  weight for this iteration     100.00

 eigenvalues of (default mixing * dielectric matrix)
  average eigenvalue GAMMA=   1.5222
  3.8470  1.9267  1.0140  1.0140  0.7331  0.5987

 Free energy of the ion-electron system (eV)
  ---------------------------------------------------
  alpha Z        PSCENC =        44.68959166
  Ewald energy   TEWEN  =      8160.01248976
  -Hartree energ DENC   =    -11105.81088114
  -exchange      EXHF   =         0.00000000
  -V(xc)+E(xc)   XCENC  =       291.36799826
  PAW double counting   =      1730.63719494    -1746.61846711
  entropy T*S    EENTRO =        -0.00237008
  eigenvalues    EBANDS =      -926.00510308
  atomic energy  EATOM  =      3394.60269404
  Solvation  Ediel_sol  =         0.00000000
  ---------------------------------------------------
  free energy    TOTEN  =      -157.12685276 eV

  energy without entropy =     -157.12448268  energy(sigma->0) =     -157.12566772


--------------------------------------------------------------------------------------------------------




--------------------------------------- Iteration      1(  12)  ---------------------------------------


    POTLOK:  cpu time    0.1800: real time    0.1795
    SETDIJ:  cpu time    0.0160: real time    0.0159
    EDDIAG:  cpu time    1.7437: real time    1.7446
  RMM-DIIS:  cpu time    5.5172: real time    5.5173
    ORTHCH:  cpu time    0.3379: real time    0.3377
       DOS:  cpu time    0.0010: real time    0.0014
    CHARGE:  cpu time    0.4679: real time    0.4677
    MIXING:  cpu time    0.0050: real time    0.0051
    --------------------------------------------
      LOOP:  cpu time    8.2687: real time    8.2692

 eigenvalue-minimisations  :  5120
 total energy-change (2. order) :-0.6397313E+00  (-0.4520463E-01)
 number of electron      81.0000033 magnetization       0.2707633
 augmentation part        2.1664400 magnetization       0.2226496

 Broyden mixing:
  rms(total) = 0.51374E-01    rms(broyden)= 0.51230E-01
  rms(prec ) = 0.62913E-01
  weight for this iteration     100.00

 eigenvalues of (default mixing * dielectric matrix)
  average eigenvalue GAMMA=   1.5148
  4.0621  1.9274  1.2800  1.2800  0.8235  0.6895  0.5409

 Free energy of the ion-electron system (eV)
  ---------------------------------------------------
  alpha Z        PSCENC =        44.68959166
  Ewald energy   TEWEN  =      8160.01248976
  -Hartree energ DENC   =    -11102.82088227
  -exchange      EXHF   =         0.00000000
  -V(xc)+E(xc)   XCENC  =       290.75409502
  PAW double counting   =      1725.34820915    -1741.32381540
  entropy T*S    EENTRO =        -0.00293704
  eigenvalues    EBANDS =      -929.02602898
  atomic energy  EATOM  =      3394.60269404
  Solvation  Ediel_sol  =         0.00000000
  ---------------------------------------------------
  free energy    TOTEN  =      -157.76658408 eV

  energy without entropy =     -157.76364704  energy(sigma->0) =     -157.76511556


--------------------------------------------------------------------------------------------------------




--------------------------------------- Iteration      1(  13)  ---------------------------------------


    POTLOK:  cpu time    0.1780: real time    0.1787
    SETDIJ:  cpu time    0.0160: real time    0.0159
    EDDIAG:  cpu time    2.0087: real time    2.0089
  RMM-DIIS:  cpu time    5.6121: real time    5.6129
    ORTHCH:  cpu time    0.3389: real time    0.3391
       DOS:  cpu time    0.0020: real time    0.0014
    CHARGE:  cpu time    0.4679: real time    0.4680
    MIXING:  cpu time    0.0050: real time    0.0056
    --------------------------------------------
      LOOP:  cpu time    8.6287: real time    8.6305

 eigenvalue-minimisations  :  5127
 total energy-change (2. order) :-0.2621906E+00  (-0.1277208E-01)
 number of electron      81.0000033 magnetization       0.0648082
 augmentation part        2.1623013 magnetization       0.0433373

 Broyden mixing:
  rms(total) = 0.26208E-01    rms(broyden)= 0.26153E-01
  rms(prec ) = 0.34157E-01
  weight for this iteration     100.00

 eigenvalues of (default mixing * dielectric matrix)
  average eigenvalue GAMMA=   1.5459
  4.2914  2.0116  2.0116  1.0428  1.0428  0.7947  0.6544  0.5178

 Free energy of the ion-electron system (eV)
  ---------------------------------------------------
  alpha Z        PSCENC =        44.68959166
  Ewald energy   TEWEN  =      8160.01248976
  -Hartree energ DENC   =    -11098.40886684
  -exchange      EXHF   =         0.00000000
  -V(xc)+E(xc)   XCENC  =       290.34983152
  PAW double counting   =      1721.21014668    -1737.20791566
  entropy T*S    EENTRO =        -0.00311655
  eigenvalues    EBANDS =      -933.27362923
  atomic energy  EATOM  =      3394.60269404
  Solvation  Ediel_sol  =         0.00000000
  ---------------------------------------------------
  free energy    TOTEN  =      -158.02877463 eV

  energy without entropy =     -158.02565808  energy(sigma->0) =     -158.02721636


--------------------------------------------------------------------------------------------------------




--------------------------------------- Iteration      1(  14)  ---------------------------------------


    POTLOK:  cpu time    0.2830: real time    0.2849
    SETDIJ:  cpu time    0.0160: real time    0.0161
    EDDIAG:  cpu time    1.8977: real time    1.8974
  RMM-DIIS:  cpu time    5.7021: real time    5.7036
    ORTHCH:  cpu time    0.3330: real time    0.3327
       DOS:  cpu time    0.0010: real time    0.0014
    CHARGE:  cpu time    0.4629: real time    0.4624
    MIXING:  cpu time    0.0050: real time    0.0056
    --------------------------------------------
      LOOP:  cpu time    8.7007: real time    8.7039

 eigenvalue-minimisations  :  5120
 total energy-change (2. order) :-0.1571708E+00  (-0.4483467E-02)
 number of electron      81.0000033 magnetization       0.0257900
 augmentation part        2.1638323 magnetization       0.0205330

 Broyden mixing:
  rms(total) = 0.10671E-01    rms(broyden)= 0.10640E-01
  rms(prec ) = 0.15784E-01
  weight for this iteration     100.00

 eigenvalues of (default mixing * dielectric matrix)
  average eigenvalue GAMMA=   1.5634
  4.3724  2.3219  2.3219  1.1515  1.1515  0.8037  0.8037  0.6311  0.5132

 Free energy of the ion-electron system (eV)
  ---------------------------------------------------
  alpha Z        PSCENC =        44.68959166
  Ewald energy   TEWEN  =      8160.01248976
  -Hartree energ DENC   =    -11094.69427026
  -exchange      EXHF   =         0.00000000
  -V(xc)+E(xc)   XCENC  =       290.04411603
  PAW double counting   =      1719.19555024    -1735.20757791
  entropy T*S    EENTRO =        -0.00316126
  eigenvalues    EBANDS =      -936.82537774
  atomic energy  EATOM  =      3394.60269404
  Solvation  Ediel_sol  =         0.00000000
  ---------------------------------------------------
  free energy    TOTEN  =      -158.18594543 eV

  energy without entropy =     -158.18278417  energy(sigma->0) =     -158.18436480


--------------------------------------------------------------------------------------------------------




--------------------------------------- Iteration      1(  15)  ---------------------------------------


    POTLOK:  cpu time    0.1770: real time    0.1772
    SETDIJ:  cpu time    0.0170: real time    0.0164
    EDDIAG:  cpu time    1.8117: real time    1.8128
  RMM-DIIS:  cpu time    5.7111: real time    5.7115
    ORTHCH:  cpu time    0.3739: real time    0.3744
       DOS:  cpu time    0.0020: real time    0.0013
    CHARGE:  cpu time    0.4639: real time    0.4643
    MIXING:  cpu time    0.0060: real time    0.0063
    --------------------------------------------
      LOOP:  cpu time    8.5627: real time    8.5642

 eigenvalue-minimisations  :  5143
 total energy-change (2. order) :-0.1874277E-01  (-0.6381729E-03)
 number of electron      81.0000033 magnetization       0.0147100
 augmentation part        2.1630352 magnetization       0.0136958

 Broyden mixing:
  rms(total) = 0.57141E-02    rms(broyden)= 0.57015E-02
  rms(prec ) = 0.93495E-02
  weight for this iteration     100.00

 eigenvalues of (default mixing * dielectric matrix)
  average eigenvalue GAMMA=   1.5224
  4.4145  2.4195  2.4195  1.3080  1.0078  1.0078  0.7563  0.7563  0.6233  0.5114

 Free energy of the ion-electron system (eV)
  ---------------------------------------------------
  alpha Z        PSCENC =        44.68959166
  Ewald energy   TEWEN  =      8160.01248976
  -Hartree energ DENC   =    -11093.57263546
  -exchange      EXHF   =         0.00000000
  -V(xc)+E(xc)   XCENC  =       289.99230101
  PAW double counting   =      1720.02397015    -1736.04668772
  entropy T*S    EENTRO =        -0.00316385
  eigenvalues    EBANDS =      -937.90324779
  atomic energy  EATOM  =      3394.60269404
  Solvation  Ediel_sol  =         0.00000000
  ---------------------------------------------------
  free energy    TOTEN  =      -158.20468820 eV

  energy without entropy =     -158.20152435  energy(sigma->0) =     -158.20310627


--------------------------------------------------------------------------------------------------------




--------------------------------------- Iteration      1(  16)  ---------------------------------------


    POTLOK:  cpu time    0.1840: real time    0.1849
    SETDIJ:  cpu time    0.0170: real time    0.0163
    EDDIAG:  cpu time    1.8777: real time    1.8785
  RMM-DIIS:  cpu time    5.4232: real time    5.4239
    ORTHCH:  cpu time    0.3829: real time    0.3832
       DOS:  cpu time    0.0010: real time    0.0014
    CHARGE:  cpu time    0.4709: real time    0.4705
    MIXING:  cpu time    0.0070: real time    0.0068
    --------------------------------------------
      LOOP:  cpu time    8.3637: real time    8.3654

 eigenvalue-minimisations  :  5120
 total energy-change (2. order) :-0.8779125E-02  (-0.2248367E-03)
 number of electron      81.0000033 magnetization       0.0046357
 augmentation part        2.1633831 magnetization       0.0042733

 Broyden mixing:
  rms(total) = 0.33548E-02    rms(broyden)= 0.33513E-02
  rms(prec ) = 0.59560E-02
  weight for this iteration     100.00

 eigenvalues of (default mixing * dielectric matrix)
  average eigenvalue GAMMA=   1.5804
  4.4082  2.6883  2.6240  1.9187  1.1314  1.1314  0.8476  0.8185  0.5111  0.6214
  0.6839

 Free energy of the ion-electron system (eV)
  ---------------------------------------------------
  alpha Z        PSCENC =        44.68959166
  Ewald energy   TEWEN  =      8160.01248976
  -Hartree energ DENC   =    -11092.73303070
  -exchange      EXHF   =         0.00000000
  -V(xc)+E(xc)   XCENC  =       289.95709651
  PAW double counting   =      1720.22331688    -1736.24696394
  entropy T*S    EENTRO =        -0.00316426
  eigenvalues    EBANDS =      -938.71549727
  atomic energy  EATOM  =      3394.60269404
  Solvation  Ediel_sol  =         0.00000000
  ---------------------------------------------------
  free energy    TOTEN  =      -158.21346732 eV

  energy without entropy =     -158.21030306  energy(sigma->0) =     -158.21188519


--------------------------------------------------------------------------------------------------------




--------------------------------------- Iteration      1(  17)  ---------------------------------------


    POTLOK:  cpu time    0.1860: real time    0.1867
    SETDIJ:  cpu time    0.0170: real time    0.0163
    EDDIAG:  cpu time    1.9667: real time    1.9675
  RMM-DIIS:  cpu time    5.4912: real time    5.4918
    ORTHCH:  cpu time    0.3349: real time    0.3354
       DOS:  cpu time    0.0020: real time    0.0014
    CHARGE:  cpu time    0.4659: real time    0.4667
    MIXING:  cpu time    0.0080: real time    0.0070
    --------------------------------------------
      LOOP:  cpu time    8.4717: real time    8.4728

 eigenvalue-minimisations  :  5120
 total energy-change (2. order) :-0.5053449E-02  (-0.1112454E-03)
 number of electron      81.0000033 magnetization      -0.0008405
 augmentation part        2.1634446 magnetization      -0.0016338

 Broyden mixing:
  rms(total) = 0.16534E-02    rms(broyden)= 0.16524E-02
  rms(prec ) = 0.31284E-02
  weight for this iteration     100.00

 eigenvalues of (default mixing * dielectric matrix)
  average eigenvalue GAMMA=   1.5984
  4.3878  3.3370  2.5611  2.0887  1.2789  1.0494  1.0494  0.8102  0.8102  0.5112
  0.6209  0.6756

 Free energy of the ion-electron system (eV)
  ---------------------------------------------------
  alpha Z        PSCENC =        44.68959166
  Ewald energy   TEWEN  =      8160.01248976
  -Hartree energ DENC   =    -11092.11331524
  -exchange      EXHF   =         0.00000000
  -V(xc)+E(xc)   XCENC  =       289.93471403
  PAW double counting   =      1720.65153344    -1736.67377628
  entropy T*S    EENTRO =        -0.00316424
  eigenvalues    EBANDS =      -939.31928793
  atomic energy  EATOM  =      3394.60269404
  Solvation  Ediel_sol  =         0.00000000
  ---------------------------------------------------
  free energy    TOTEN  =      -158.21852077 eV

  energy without entropy =     -158.21535653  energy(sigma->0) =     -158.21693865


--------------------------------------------------------------------------------------------------------




--------------------------------------- Iteration      1(  18)  ---------------------------------------


    POTLOK:  cpu time    0.1820: real time    0.1826
    SETDIJ:  cpu time    0.0160: real time    0.0162
    EDDIAG:  cpu time    1.9287: real time    1.9285
  RMM-DIIS:  cpu time    5.6561: real time    5.6577
    ORTHCH:  cpu time    0.3210: real time    0.3210
       DOS:  cpu time    0.0020: real time    0.0014
    CHARGE:  cpu time    0.4589: real time    0.4595
    MIXING:  cpu time    0.0080: real time    0.0073
    --------------------------------------------
      LOOP:  cpu time    8.5727: real time    8.5742

 eigenvalue-minimisations  :  5120
 total energy-change (2. order) :-0.1726515E-02  (-0.3324604E-04)
 number of electron      81.0000033 magnetization      -0.0028652
 augmentation part        2.1633132 magnetization      -0.0030943

 Broyden mixing:
  rms(total) = 0.97724E-03    rms(broyden)= 0.97672E-03
  rms(prec ) = 0.19158E-02
  weight for this iteration     100.00

 eigenvalues of (default mixing * dielectric matrix)
  average eigenvalue GAMMA=   1.6077
  4.4012  3.8442  2.5166  2.2280  1.4966  1.0953  1.0953  0.5112  0.8229  0.8229
  0.7799  0.6217  0.6649

 Free energy of the ion-electron system (eV)
  ---------------------------------------------------
  alpha Z        PSCENC =        44.68959166
  Ewald energy   TEWEN  =      8160.01248976
  -Hartree energ DENC   =    -11092.02076995
  -exchange      EXHF   =         0.00000000
  -V(xc)+E(xc)   XCENC  =       289.93076422
  PAW double counting   =      1720.73464436    -1736.75505862
  entropy T*S    EENTRO =        -0.00316422
  eigenvalues    EBANDS =      -939.41143853
  atomic energy  EATOM  =      3394.60269404
  Solvation  Ediel_sol  =         0.00000000
  ---------------------------------------------------
  free energy    TOTEN  =      -158.22024728 eV

  energy without entropy =     -158.21708307  energy(sigma->0) =     -158.21866518


--------------------------------------------------------------------------------------------------------




--------------------------------------- Iteration      1(  19)  ---------------------------------------


    POTLOK:  cpu time    0.1900: real time    0.1908
    SETDIJ:  cpu time    0.0170: real time    0.0162
    EDDIAG:  cpu time    1.9037: real time    1.9046
  RMM-DIIS:  cpu time    5.8581: real time    5.8592
    ORTHCH:  cpu time    0.3339: real time    0.3334
       DOS:  cpu time    0.0010: real time    0.0014
    CHARGE:  cpu time    0.4659: real time    0.4660
    MIXING:  cpu time    0.0080: real time    0.0079
    --------------------------------------------
      LOOP:  cpu time    8.7777: real time    8.7794

 eigenvalue-minimisations  :  5145
 total energy-change (2. order) :-0.8242547E-03  (-0.1133430E-04)
 number of electron      81.0000033 magnetization      -0.0019748
 augmentation part        2.1633124 magnetization      -0.0018620

 Broyden mixing:
  rms(total) = 0.64756E-03    rms(broyden)= 0.64735E-03
  rms(prec ) = 0.11936E-02
  weight for this iteration     100.00

 eigenvalues of (default mixing * dielectric matrix)
  average eigenvalue GAMMA=   1.6587
  4.4347  4.4347  2.5919  2.2856  1.9242  1.2764  1.0672  1.0672  0.8200  0.8200
  0.5112  0.7142  0.6216  0.6534

 Free energy of the ion-electron system (eV)
  ---------------------------------------------------
  alpha Z        PSCENC =        44.68959166
  Ewald energy   TEWEN  =      8160.01248976
  -Hartree energ DENC   =    -11091.96477742
  -exchange      EXHF   =         0.00000000
  -V(xc)+E(xc)   XCENC  =       289.92681941
  PAW double counting   =      1720.66811296    -1736.68823320
  entropy T*S    EENTRO =        -0.00316431
  eigenvalues    EBANDS =      -939.46460443
  atomic energy  EATOM  =      3394.60269404
  Solvation  Ediel_sol  =         0.00000000
  ---------------------------------------------------
  free energy    TOTEN  =      -158.22107154 eV

  energy without entropy =     -158.21790722  energy(sigma->0) =     -158.21948938


--------------------------------------------------------------------------------------------------------




--------------------------------------- Iteration      1(  20)  ---------------------------------------


    POTLOK:  cpu time    0.1830: real time    0.1828
    SETDIJ:  cpu time    0.0160: real time    0.0161
    EDDIAG:  cpu time    1.7837: real time    1.7842
  RMM-DIIS:  cpu time    4.9502: real time    4.9512
    ORTHCH:  cpu time    0.3349: real time    0.3340
       DOS:  cpu time    0.0010: real time    0.0013
    CHARGE:  cpu time    0.4809: real time    0.4816
    MIXING:  cpu time    0.0090: real time    0.0085
    --------------------------------------------
      LOOP:  cpu time    7.7588: real time    7.7598

 eigenvalue-minimisations  :  4439
 total energy-change (2. order) :-0.5070474E-03  (-0.5371333E-05)
 number of electron      81.0000033 magnetization      -0.0017818
 augmentation part        2.1632966 magnetization      -0.0015411

 Broyden mixing:
  rms(total) = 0.33279E-03    rms(broyden)= 0.33266E-03
  rms(prec ) = 0.66702E-03
  weight for this iteration     100.00

 eigenvalues of (default mixing * dielectric matrix)
  average eigenvalue GAMMA=   1.6730
  4.7993  4.4436  2.7584  2.2976  2.1895  1.3738  1.0738  1.0738  0.9361  0.8353
  0.8353  0.5112  0.6996  0.6235  0.6448

 Free energy of the ion-electron system (eV)
  ---------------------------------------------------
  alpha Z        PSCENC =        44.68959166
  Ewald energy   TEWEN  =      8160.01248976
  -Hartree energ DENC   =    -11092.02136801
  -exchange      EXHF   =         0.00000000
  -V(xc)+E(xc)   XCENC  =       289.92710430
  PAW double counting   =      1720.65552040    -1736.67628546
  entropy T*S    EENTRO =        -0.00316437
  eigenvalues    EBANDS =      -939.40816090
  atomic energy  EATOM  =      3394.60269404
  Solvation  Ediel_sol  =         0.00000000
  ---------------------------------------------------
  free energy    TOTEN  =      -158.22157859 eV

  energy without entropy =     -158.21841422  energy(sigma->0) =     -158.21999640


--------------------------------------------------------------------------------------------------------




--------------------------------------- Iteration      1(  21)  ---------------------------------------


    POTLOK:  cpu time    0.1800: real time    0.1805
    SETDIJ:  cpu time    0.0170: real time    0.0161
    EDDIAG:  cpu time    1.9647: real time    1.9658
  RMM-DIIS:  cpu time    4.7193: real time    4.7196
    ORTHCH:  cpu time    0.3349: real time    0.3352
       DOS:  cpu time    0.0010: real time    0.0014
    CHARGE:  cpu time    0.4679: real time    0.4674
    MIXING:  cpu time    0.0090: real time    0.0088
    --------------------------------------------
      LOOP:  cpu time    7.6938: real time    7.6947

 eigenvalue-minimisations  :  4331
 total energy-change (2. order) :-0.2135069E-03  (-0.2022325E-05)
 number of electron      81.0000033 magnetization      -0.0010633
 augmentation part        2.1632874 magnetization      -0.0009011

 Broyden mixing:
  rms(total) = 0.21099E-03    rms(broyden)= 0.21093E-03
  rms(prec ) = 0.39131E-03
  weight for this iteration     100.00

 eigenvalues of (default mixing * dielectric matrix)
  average eigenvalue GAMMA=   1.7171
  5.3375  4.4225  2.9950  2.6408  2.1384  1.6569  1.2322  1.0678  1.0678  0.5112
  0.8235  0.8235  0.8042  0.6910  0.6214  0.6393

 Free energy of the ion-electron system (eV)
  ---------------------------------------------------
  alpha Z        PSCENC =        44.68959166
  Ewald energy   TEWEN  =      8160.01248976
  -Hartree energ DENC   =    -11092.09190078
  -exchange      EXHF   =         0.00000000
  -V(xc)+E(xc)   XCENC  =       289.92742085
  PAW double counting   =      1720.62090970    -1736.64192384
  entropy T*S    EENTRO =        -0.00316438
  eigenvalues    EBANDS =      -939.33790909
  atomic energy  EATOM  =      3394.60269404
  Solvation  Ediel_sol  =         0.00000000
  ---------------------------------------------------
  free energy    TOTEN  =      -158.22179209 eV

  energy without entropy =     -158.21862771  energy(sigma->0) =     -158.22020990


--------------------------------------------------------------------------------------------------------




--------------------------------------- Iteration      1(  22)  ---------------------------------------


    POTLOK:  cpu time    0.1880: real time    0.1895
    SETDIJ:  cpu time    0.0160: real time    0.0163
    EDDIAG:  cpu time    1.9317: real time    1.9315
  RMM-DIIS:  cpu time    4.7693: real time    4.7699
    ORTHCH:  cpu time    0.3329: real time    0.3328
       DOS:  cpu time    0.0010: real time    0.0014
    CHARGE:  cpu time    0.4609: real time    0.4609
    MIXING:  cpu time    0.0090: real time    0.0092
    --------------------------------------------
      LOOP:  cpu time    7.7088: real time    7.7115

 eigenvalue-minimisations  :  4131
 total energy-change (2. order) :-0.5094807E-04  (-0.5110530E-06)
 number of electron      81.0000033 magnetization      -0.0004015
 augmentation part        2.1632754 magnetization      -0.0003208

 Broyden mixing:
  rms(total) = 0.12926E-03    rms(broyden)= 0.12922E-03
  rms(prec ) = 0.25164E-03
  weight for this iteration     100.00

 eigenvalues of (default mixing * dielectric matrix)
  average eigenvalue GAMMA=   1.7417
  5.8028  4.4382  3.2519  2.7478  2.0337  2.0337  1.3043  1.0772  1.0772  0.9475
  0.5112  0.8830  0.8032  0.7648  0.6800  0.6229  0.6298

 Free energy of the ion-electron system (eV)
  ---------------------------------------------------
  alpha Z        PSCENC =        44.68959166
  Ewald energy   TEWEN  =      8160.01248976
  -Hartree energ DENC   =    -11092.13944650
  -exchange      EXHF   =         0.00000000
  -V(xc)+E(xc)   XCENC  =       289.92756104
  PAW double counting   =      1720.60645995    -1736.62744980
  entropy T*S    EENTRO =        -0.00316439
  eigenvalues    EBANDS =      -939.29057879
  atomic energy  EATOM  =      3394.60269404
  Solvation  Ediel_sol  =         0.00000000
  ---------------------------------------------------
  free energy    TOTEN  =      -158.22184304 eV

  energy without entropy =     -158.21867865  energy(sigma->0) =     -158.22026084


--------------------------------------------------------------------------------------------------------




--------------------------------------- Iteration      1(  23)  ---------------------------------------


    POTLOK:  cpu time    0.1770: real time    0.1764
    SETDIJ:  cpu time    0.0160: real time    0.0159
    EDDIAG:  cpu time    1.8327: real time    1.8332
  RMM-DIIS:  cpu time    4.2883: real time    4.2890
    ORTHCH:  cpu time    0.3389: real time    0.3396
       DOS:  cpu time    0.0020: real time    0.0014
    CHARGE:  cpu time    0.4709: real time    0.4711
    MIXING:  cpu time    0.0100: real time    0.0102
    --------------------------------------------
      LOOP:  cpu time    7.1359: real time    7.1369

 eigenvalue-minimisations  :  3768
 total energy-change (2. order) :-0.1400909E-04  (-0.1824785E-06)
 number of electron      81.0000033 magnetization      -0.0001982
 augmentation part        2.1632730 magnetization      -0.0001909

 Broyden mixing:
  rms(total) = 0.71509E-04    rms(broyden)= 0.71482E-04
  rms(prec ) = 0.15543E-03
  weight for this iteration     100.00

 eigenvalues of (default mixing * dielectric matrix)
  average eigenvalue GAMMA=   1.7707
  6.2606  4.4485  3.4780  2.9412  2.1704  2.1704  1.4063  1.1633  1.0640  1.0640
  0.9295  0.8193  0.8193  0.5112  0.7103  0.6661  0.6185  0.6325

 Free energy of the ion-electron system (eV)
  ---------------------------------------------------
  alpha Z        PSCENC =        44.68959166
  Ewald energy   TEWEN  =      8160.01248976
  -Hartree energ DENC   =    -11092.18845623
  -exchange      EXHF   =         0.00000000
  -V(xc)+E(xc)   XCENC  =       289.92789015
  PAW double counting   =      1720.60909170    -1736.62999553
  entropy T*S    EENTRO =        -0.00316438
  eigenvalues    EBANDS =      -939.24199821
  atomic energy  EATOM  =      3394.60269404
  Solvation  Ediel_sol  =         0.00000000
  ---------------------------------------------------
  free energy    TOTEN  =      -158.22185705 eV

  energy without entropy =     -158.21869267  energy(sigma->0) =     -158.22027486


--------------------------------------------------------------------------------------------------------




--------------------------------------- Iteration      1(  24)  ---------------------------------------


    POTLOK:  cpu time    0.1920: real time    0.1930
    SETDIJ:  cpu time    0.0160: real time    0.0162
    EDDIAG:  cpu time    1.9497: real time    1.9497
  RMM-DIIS:  cpu time    3.8624: real time    3.8635
    ORTHCH:  cpu time    0.3359: real time    0.3355
       DOS:  cpu time    0.0010: real time    0.0014
    CHARGE:  cpu time    0.4669: real time    0.4669
    MIXING:  cpu time    0.0110: real time    0.0104
    --------------------------------------------
      LOOP:  cpu time    6.8350: real time    6.8365

 eigenvalue-minimisations  :  3416
 total energy-change (2. order) :-0.6007685E-05  (-0.5261129E-07)
 number of electron      81.0000033 magnetization      -0.0000524
 augmentation part        2.1632710 magnetization      -0.0000476

 Broyden mixing:
  rms(total) = 0.52567E-04    rms(broyden)= 0.52559E-04
  rms(prec ) = 0.10765E-03
  weight for this iteration     100.00

 eigenvalues of (default mixing * dielectric matrix)
  average eigenvalue GAMMA=   1.7853
  6.5034  4.4432  3.7110  3.0510  2.2196  2.2196  1.6602  1.2888  1.0726  1.0726
  1.0475  0.5112  0.9027  0.8055  0.8055  0.7031  0.6590  0.6199  0.6247

 Free energy of the ion-electron system (eV)
  ---------------------------------------------------
  alpha Z        PSCENC =        44.68959166
  Ewald energy   TEWEN  =      8160.01248976
  -Hartree energ DENC   =    -11092.21830949
  -exchange      EXHF   =         0.00000000
  -V(xc)+E(xc)   XCENC  =       289.92805151
  PAW double counting   =      1720.61209973    -1736.63295331
  entropy T*S    EENTRO =        -0.00316437
  eigenvalues    EBANDS =      -939.21236258
  atomic energy  EATOM  =      3394.60269404
  Solvation  Ediel_sol  =         0.00000000
  ---------------------------------------------------
  free energy    TOTEN  =      -158.22186306 eV

  energy without entropy =     -158.21869869  energy(sigma->0) =     -158.22028087


--------------------------------------------------------------------------------------------------------




--------------------------------------- Iteration      1(  25)  ---------------------------------------


    POTLOK:  cpu time    0.1820: real time    0.1828
    SETDIJ:  cpu time    0.0170: real time    0.0162
    EDDIAG:  cpu time    1.8997: real time    1.9005
  RMM-DIIS:  cpu time    3.9164: real time    3.9174
    ORTHCH:  cpu time    0.3339: real time    0.3334
       DOS:  cpu time    0.0010: real time    0.0015
    CHARGE:  cpu time    0.4659: real time    0.4656
    MIXING:  cpu time    0.0110: real time    0.0108
    --------------------------------------------
      LOOP:  cpu time    6.8270: real time    6.8282

 eigenvalue-minimisations  :  3014
 total energy-change (2. order) :-0.6733535E-05  (-0.4930662E-07)
 number of electron      81.0000033 magnetization       0.0000114
 augmentation part        2.1632697 magnetization       0.0000255

 Broyden mixing:
  rms(total) = 0.29715E-04    rms(broyden)= 0.29700E-04
  rms(prec ) = 0.55834E-04
  weight for this iteration     100.00

 eigenvalues of (default mixing * dielectric matrix)
  average eigenvalue GAMMA=   1.8144
  6.7779  4.4229  4.1264  3.1794  2.3303  2.3303  2.0170  1.3333  1.1305  1.0702
  1.0702  0.9942  0.5112  0.8232  0.8232  0.7607  0.6932  0.6522  0.6195  0.6223

 Free energy of the ion-electron system (eV)
  ---------------------------------------------------
  alpha Z        PSCENC =        44.68959166
  Ewald energy   TEWEN  =      8160.01248976
  -Hartree energ DENC   =    -11092.25232664
  -exchange      EXHF   =         0.00000000
  -V(xc)+E(xc)   XCENC  =       289.92830540
  PAW double counting   =      1720.61481895    -1736.63560720
  entropy T*S    EENTRO =        -0.00316437
  eigenvalues    EBANDS =      -939.17867139
  atomic energy  EATOM  =      3394.60269404
  Solvation  Ediel_sol  =         0.00000000
  ---------------------------------------------------
  free energy    TOTEN  =      -158.22186979 eV

  energy without entropy =     -158.21870543  energy(sigma->0) =     -158.22028761


--------------------------------------------------------------------------------------------------------




--------------------------------------- Iteration      1(  26)  ---------------------------------------


    POTLOK:  cpu time    0.1820: real time    0.1822
    SETDIJ:  cpu time    0.0160: real time    0.0162
    EDDIAG:  cpu time    1.7727: real time    1.7733
  RMM-DIIS:  cpu time    3.5995: real time    3.6000
    ORTHCH:  cpu time    0.3310: real time    0.3307
       DOS:  cpu time    0.0020: real time    0.0014
    CHARGE:  cpu time    0.5269: real time    0.5286
    MIXING:  cpu time    0.0120: real time    0.0120
    --------------------------------------------
      LOOP:  cpu time    6.4420: real time    6.4444

 eigenvalue-minimisations  :  2649
 total energy-change (2. order) :-0.2928270E-05  (-0.2176164E-07)
 number of electron      81.0000033 magnetization       0.0000156
 augmentation part        2.1632672 magnetization       0.0000251

 Broyden mixing:
  rms(total) = 0.19266E-04    rms(broyden)= 0.19261E-04
  rms(prec ) = 0.31902E-04
  weight for this iteration     100.00

 eigenvalues of (default mixing * dielectric matrix)
  average eigenvalue GAMMA=   1.8387
[...]
     -0.987733  3.552624  6.448036            0           0           0  
     -2.184496  4.278842  6.393730            0           0           0  
     -2.174514  5.689525  6.374259            0           0           0  
     -1.002994  6.435835  6.370071            0           0           0  
      1.483072  3.630691  6.375063            0           0           0  
      0.245295  4.294923  6.382148            0           0           0  
      0.234730  5.771187  6.381132            0           0           0  
      4.792574  0.018360  6.448359            0           0           0  
      4.882794  1.455805  6.535621            0           0           0  
      3.725908  2.258496  6.612081            0           0           0  
      3.860505  3.628447  6.438354            0           0           0  
      2.653975  4.377433  6.377573            0           0           0  
      2.663985  5.788140  6.393788            0           0           0  
      1.900025  1.788408  7.044122    -0.001417    0.000184    0.564112  
      1.652576  2.668568  8.384959     0.109840   -0.402326   -0.418285  
      2.145624  0.882700  8.369431    -0.106899    0.400848   -0.400968  
 
   2 f  =   21.761684 THz   136.732693 2PiTHz  725.891622 cm-1    89.999123 meV
             X         Y         Z           dx          dy          dz
      3.916305  6.438626  6.434827            0           0           0  
      0.078239  1.313002  6.607217            0           0           0  
     -1.079051  2.115252  6.534206            0           0           0  
     -0.987733  3.552624  6.448036            0           0           0  
     -2.184496  4.278842  6.393730            0           0           0  
     -2.174514  5.689525  6.374259            0           0           0  
     -1.002994  6.435835  6.370071            0           0           0  
      1.483072  3.630691  6.375063            0           0           0  
      0.245295  4.294923  6.382148            0           0           0  
      0.234730  5.771187  6.381132            0           0           0  
      4.792574  0.018360  6.448359            0           0           0  
      4.882794  1.455805  6.535621            0           0           0  
      3.725908  2.258496  6.612081            0           0           0  
      3.860505  3.628447  6.438354            0           0           0  
      2.653975  4.377433  6.377573            0           0           0  
      2.663985  5.788140  6.393788            0           0           0  
      1.900025  1.788408  7.044122    -0.079089    0.542297   -0.000025  
      1.652576  2.668568  8.384959     0.075171   -0.290244   -0.501523  
      2.145624  0.882700  8.369431     0.076743   -0.307223    0.507904  
 
   3 f  =   14.135660 THz    88.816972 2PiTHz  471.514855 cm-1    58.460412 meV
             X         Y         Z           dx          dy          dz
      3.916305  6.438626  6.434827            0           0           0  
      0.078239  1.313002  6.607217            0           0           0  
     -1.079051  2.115252  6.534206            0           0           0  
     -0.987733  3.552624  6.448036            0           0           0  
     -2.184496  4.278842  6.393730            0           0           0  
     -2.174514  5.689525  6.374259            0           0           0  
     -1.002994  6.435835  6.370071            0           0           0  
      1.483072  3.630691  6.375063            0           0           0  
      0.245295  4.294923  6.382148            0           0           0  
      0.234730  5.771187  6.381132            0           0           0  
      4.792574  0.018360  6.448359            0           0           0  
      4.882794  1.455805  6.535621            0           0           0  
      3.725908  2.258496  6.612081            0           0           0  
      3.860505  3.628447  6.438354            0           0           0  
      2.653975  4.377433  6.377573            0           0           0  
      2.663985  5.788140  6.393788            0           0           0  
      1.900025  1.788408  7.044122     0.903661    0.320604    0.002713  
      1.652576  2.668568  8.384959    -0.184061    0.003270    0.070888  
      2.145624  0.882700  8.369431    -0.191688    0.005699   -0.070082  
 
   4 f  =    7.925856 THz    49.799624 2PiTHz  264.378104 cm-1    32.778719 meV
             X         Y         Z           dx          dy          dz
      3.916305  6.438626  6.434827            0           0           0  
      0.078239  1.313002  6.607217            0           0           0  
     -1.079051  2.115252  6.534206            0           0           0  
     -0.987733  3.552624  6.448036            0           0           0  
     -2.184496  4.278842  6.393730            0           0           0  
     -2.174514  5.689525  6.374259            0           0           0  
     -1.002994  6.435835  6.370071            0           0           0  
      1.483072  3.630691  6.375063            0           0           0  
      0.245295  4.294923  6.382148            0           0           0  
      0.234730  5.771187  6.381132            0           0           0  
      4.792574  0.018360  6.448359            0           0           0  
      4.882794  1.455805  6.535621            0           0           0  
      3.725908  2.258496  6.612081            0           0           0  
      3.860505  3.628447  6.438354            0           0           0  
      2.653975  4.377433  6.377573            0           0           0  
      2.663985  5.788140  6.393788            0           0           0  
      1.900025  1.788408  7.044122    -0.006781    0.015311   -0.748218  
      1.652576  2.668568  8.384959     0.218452   -0.038661   -0.410477  
      2.145624  0.882700  8.369431    -0.228093    0.056355   -0.408631  
 
   5 f  =    7.477070 THz    46.979814 2PiTHz  249.408190 cm-1    30.922686 meV
             X         Y         Z           dx          dy          dz
      3.916305  6.438626  6.434827            0           0           0  
      0.078239  1.313002  6.607217            0           0           0  
     -1.079051  2.115252  6.534206            0           0           0  
     -0.987733  3.552624  6.448036            0           0           0  
     -2.184496  4.278842  6.393730            0           0           0  
     -2.174514  5.689525  6.374259            0           0           0  
     -1.002994  6.435835  6.370071            0           0           0  
      1.483072  3.630691  6.375063            0           0           0  
      0.245295  4.294923  6.382148            0           0           0  
      0.234730  5.771187  6.381132            0           0           0  
      4.792574  0.018360  6.448359            0           0           0  
      4.882794  1.455805  6.535621            0           0           0  
      3.725908  2.258496  6.612081            0           0           0  
      3.860505  3.628447  6.438354            0           0           0  
      2.653975  4.377433  6.377573            0           0           0  
      2.663985  5.788140  6.393788            0           0           0  
      1.900025  1.788408  7.044122    -0.186647    0.689223   -0.025220  
      1.652576  2.668568  8.384959     0.104330    0.346482    0.175576  
      2.145624  0.882700  8.369431     0.330531    0.420156   -0.204829  
 
   6 f  =    7.131429 THz    44.808092 2PiTHz  237.878871 cm-1    29.493232 meV
             X         Y         Z           dx          dy          dz
      3.916305  6.438626  6.434827            0           0           0  
      0.078239  1.313002  6.607217            0           0           0  
     -1.079051  2.115252  6.534206            0           0           0  
     -0.987733  3.552624  6.448036            0           0           0  
     -2.184496  4.278842  6.393730            0           0           0  
     -2.174514  5.689525  6.374259            0           0           0  
     -1.002994  6.435835  6.370071            0           0           0  
      1.483072  3.630691  6.375063            0           0           0  
      0.245295  4.294923  6.382148            0           0           0  
      0.234730  5.771187  6.381132            0           0           0  
      4.792574  0.018360  6.448359            0           0           0  
      4.882794  1.455805  6.535621            0           0           0  
      3.725908  2.258496  6.612081            0           0           0  
      3.860505  3.628447  6.438354            0           0           0  
      2.653975  4.377433  6.377573            0           0           0  
      2.663985  5.788140  6.393788            0           0           0  
      1.900025  1.788408  7.044122    -0.087580    0.146733    0.217776  
      1.652576  2.668568  8.384959     0.572930    0.270991    0.161331  
      2.145624  0.882700  8.369431    -0.688545   -0.111334    0.095765  
 
   7 f  =    6.177488 THz    38.814301 2PiTHz  206.058806 cm-1    25.548045 meV
             X         Y         Z           dx          dy          dz
      3.916305  6.438626  6.434827            0           0           0  
      0.078239  1.313002  6.607217            0           0           0  
     -1.079051  2.115252  6.534206            0           0           0  
     -0.987733  3.552624  6.448036            0           0           0  
     -2.184496  4.278842  6.393730            0           0           0  
     -2.174514  5.689525  6.374259            0           0           0  
     -1.002994  6.435835  6.370071            0           0           0  
      1.483072  3.630691  6.375063            0           0           0  
      0.245295  4.294923  6.382148            0           0           0  
      0.234730  5.771187  6.381132            0           0           0  
      4.792574  0.018360  6.448359            0           0           0  
      4.882794  1.455805  6.535621            0           0           0  
      3.725908  2.258496  6.612081            0           0           0  
      3.860505  3.628447  6.438354            0           0           0  
      2.653975  4.377433  6.377573            0           0           0  
      2.663985  5.788140  6.393788            0           0           0  
      1.900025  1.788408  7.044122     0.348481   -0.224000    0.022912  
      1.652576  2.668568  8.384959     0.730435    0.010465   -0.026225  
      2.145624  0.882700  8.369431     0.536691   -0.051789    0.052993  
 
   8 f  =    2.936185 THz    18.448592 2PiTHz   97.940575 cm-1    12.143088 meV
             X         Y         Z           dx          dy          dz
      3.916305  6.438626  6.434827            0           0           0  
      0.078239  1.313002  6.607217            0           0           0  
     -1.079051  2.115252  6.534206            0           0           0  
     -0.987733  3.552624  6.448036            0           0           0  
     -2.184496  4.278842  6.393730            0           0           0  
     -2.174514  5.689525  6.374259            0           0           0  
     -1.002994  6.435835  6.370071            0           0           0  
      1.483072  3.630691  6.375063            0           0           0  
      0.245295  4.294923  6.382148            0           0           0  
      0.234730  5.771187  6.381132            0           0           0  
      4.792574  0.018360  6.448359            0           0           0  
      4.882794  1.455805  6.535621            0           0           0  
      3.725908  2.258496  6.612081            0           0           0  
      3.860505  3.628447  6.438354            0           0           0  
      2.653975  4.377433  6.377573            0           0           0  
      2.663985  5.788140  6.393788            0           0           0  
      1.900025  1.788408  7.044122     0.114641   -0.236904    0.002199  
      1.652576  2.668568  8.384959    -0.098403    0.516463   -0.452549  
      2.145624  0.882700  8.369431    -0.067586    0.497247    0.444622  
 
   9 f/i=   13.028105 THz    81.857997 2PiTHz  434.570786 cm-1    53.879930 meV
             X         Y         Z           dx          dy          dz
      3.916305  6.438626  6.434827            0           0           0  
      0.078239  1.313002  6.607217            0           0           0  
     -1.079051  2.115252  6.534206            0           0           0  
     -0.987733  3.552624  6.448036            0           0           0  
     -2.184496  4.278842  6.393730            0           0           0  
     -2.174514  5.689525  6.374259            0           0           0  
     -1.002994  6.435835  6.370071            0           0           0  
      1.483072  3.630691  6.375063            0           0           0  
      0.245295  4.294923  6.382148            0           0           0  
      0.234730  5.771187  6.381132            0           0           0  
      4.792574  0.018360  6.448359            0           0           0  
      4.882794  1.455805  6.535621            0           0           0  
      3.725908  2.258496  6.612081            0           0           0  
      3.860505  3.628447  6.438354            0           0           0  
      2.653975  4.377433  6.377573            0           0           0  
      2.663985  5.788140  6.393788            0           0           0  
      1.900025  1.788408  7.044122     0.002210   -0.005821   -0.270827  
      1.652576  2.668568  8.384959     0.135399   -0.540424    0.371016  
      2.145624  0.882700  8.369431    -0.134025    0.550330    0.397170  
 
 Finite differences POTIM=  2.000000000000000E-002
  LATTYP: Found a base centered orthorhombic cell.
 ALAT       =     7.6136863109
 B/A-ratio  =     1.6354132715
 C/A-ratio  =     1.9701363292
  
  Lattice vectors:
  
 A1 = (   7.2974033356,   0.0000000000,   0.0000000000)
 A2 = (  -3.3255740843,   6.4955978662,   0.0000000000)
 A3 = (   0.0000000000,   0.0000000000,  15.0000000000)


Analysis of symmetry for initial positions (statically):
=====================================================================
 Subroutine PRICEL returns:
 Original cell was already a primitive cell.
 

 Routine SETGRP: Setting up the symmetry group for a 
 base centered orthorhombic supercell.


 Subroutine GETGRP returns: Found  1 space group operations
 (whereof  1 operations were pure point group operations)
 out of a pool of  8 trial point group operations.


The static configuration has the point symmetry C_1 .


Analysis of symmetry for dynamics (positions and initial velocities):
=====================================================================
 Subroutine PRICEL returns:
 Original cell was already a primitive cell.
 

 Routine SETGRP: Setting up the symmetry group for a 
 base centered orthorhombic supercell.


 Subroutine GETGRP returns: Found  1 space group operations
 (whereof  1 operations were pure point group operations)
 out of a pool of  8 trial point group operations.


The dynamic configuration has the point symmetry C_1 .


Analysis of constrained symmetry for selective dynamics:
=====================================================================
 Subroutine PRICEL returns:
 Original cell was already a primitive cell.
 

 Routine SETGRP: Setting up the symmetry group for a 
 base centered orthorhombic supercell.


 Subroutine GETGRP returns: Found  1 space group operations
 (whereof  1 operations were pure point group operations)
 out of a pool of  8 trial point group operations.


The constrained configuration has the point symmetry C_1 .


Analysis of structural, dynamic, and magnetic symmetry:
=====================================================================
 Subroutine PRICEL returns:
 Original cell was already a primitive cell.
 

 Routine SETGRP: Setting up the symmetry group for a 
 base centered orthorhombic supercell.


 Subroutine GETGRP returns: Found  1 space group operations
 (whereof  1 operations were pure point group operations)
 out of a pool of  8 trial point group operations.


The magnetic configuration has the point symmetry C_1 .


 Subroutine INISYM returns: Found  1 space group operations
 (whereof  1 operations are pure point group operations),
 and found     1 'primitive' translations

 
 KPOINTS: K-POINTS                                

Automatic generation of k-mesh.
Space group operators:
 irot       det(A)        alpha          n_x          n_y          n_z        tau_x        tau_y        tau_z
    1     1.000000     0.000000     1.000000     0.000000     0.000000     0.000000     0.000000     0.000000
 
 Subroutine IBZKPT returns following result:
 ===========================================
 
 Found     20 irreducible k-points:
 
 Following reciprocal coordinates:
            Coordinates               Weight
  0.000000  0.000000  0.000000      1.000000
  0.166667  0.000000  0.000000      2.000000
  0.333333  0.000000  0.000000      2.000000
  0.500000  0.000000  0.000000      1.000000
  0.000000  0.166667  0.000000      2.000000
  0.166667  0.166667  0.000000      2.000000
  0.333333  0.166667  0.000000      2.000000
  0.500000  0.166667  0.000000      2.000000
 -0.333333  0.166667  0.000000      2.000000
 -0.166667  0.166667  0.000000      2.000000
  0.000000  0.333333  0.000000      2.000000
  0.166667  0.333333  0.000000      2.000000
  0.333333  0.333333  0.000000      2.000000
  0.500000  0.333333  0.000000      2.000000
 -0.333333  0.333333  0.000000      2.000000
 -0.166667  0.333333  0.000000      2.000000
  0.000000  0.500000  0.000000      1.000000
  0.166667  0.500000  0.000000      2.000000
  0.333333  0.500000  0.000000      2.000000
  0.500000  0.500000  0.000000      1.000000
 
 Following cartesian coordinates:
            Coordinates               Weight
  0.000000  0.000000  0.000000      1.000000
  0.022839  0.011693  0.000000      2.000000
  0.045678  0.023386  0.000000      2.000000
  0.068518  0.035079  0.000000      1.000000
  0.000000  0.025658  0.000000      2.000000
  0.022839  0.037351  0.000000      2.000000
  0.045678  0.049045  0.000000      2.000000
  0.068518  0.060738  0.000000      2.000000
 -0.045678  0.002272  0.000000      2.000000
 -0.022839  0.013965  0.000000      2.000000
  0.000000  0.051317  0.000000      2.000000
  0.022839  0.063010  0.000000      2.000000
  0.045678  0.074703  0.000000      2.000000
  0.068518  0.086396  0.000000      2.000000
 -0.045678  0.027931  0.000000      2.000000
 -0.022839  0.039624  0.000000      2.000000
  0.000000  0.076975  0.000000      1.000000
  0.022839  0.088668  0.000000      2.000000
  0.045678  0.100361  0.000000      2.000000
  0.068518  0.112054  0.000000      1.000000
 
     LOOP+:  cpu time  121.5145: real time  121.5455
    4ORBIT:  cpu time    0.0000: real time    0.0000

 total amount of memory used by VASP MPI-rank0   121012. kBytes
=======================================================================

   base      :      30000. kBytes
   nonlr-proj:       2166. kBytes
   fftplans  :       3962. kBytes
   grid      :      17553. kBytes
   one-center:        116. kBytes
   wavefun   :      67215. kBytes
 
  
  
 General timing and accounting informations for this job:
 ========================================================
  
                  Total CPU time used (sec):     2150.659
                            User time (sec):     2148.019
                          System time (sec):        2.640
                         Elapsed time (sec):     2152.218
  
                   Maximum memory used (kb):      249904.
                   Average memory used (kb):           0.
  
                          Minor page faults:       815704
                          Major page faults:            1
                 Voluntary context switches:         2524
   TITEL  = PAW_PBE C 08Apr2002
   TITEL  = PAW_PBE P 17Jan2003
   TITEL  = PAW_PBE O 08Apr2002
