   2   2   1   0
  0.3167083E+02  0.2468816E-09  0.2468816E-09  0.1200000E-08  0.5000000E-15
  1.000000000000000E-004
  CAR 
 unknown system                          
     12.98167475    -22.88484668  301     -1.83568192      1.00000000
    -22.885  0.0000E+00  0.0000E+00
    -22.765  0.0000E+00  0.0000E+00
    -22.646  0.0000E+00  0.0000E+00
    -22.526  0.0000E+00  0.0000E+00
    -22.407  0.0000E+00  0.0000E+00
    -22.287  0.0000E+00  0.0000E+00
    -22.168  0.0000E+00  0.0000E+00
    -22.048  0.0000E+00  0.0000E+00
    -21.928  0.0000E+00  0.0000E+00
    -21.809  0.0000E+00  0.0000E+00
    -21.689  0.0000E+00  0.0000E+00
    -21.570  0.0000E+00  0.0000E+00
    -21.450  0.4976E-09  0.5949E-10
    -21.331  0.5575E-03  0.6665E-04
    -21.211  0.1211E+00  0.1454E-01
    -21.092  0.3139E+00  0.5207E-01
    -20.972  0.2427E+00  0.8108E-01
    -20.852  0.3982E+00  0.1287E+00
    -20.733  0.1840E+00  0.1507E+00
    -20.613  0.4692E+00  0.2068E+00
    -20.494  0.1880E+00  0.2293E+00
    -20.374  0.3616E+00  0.2725E+00
    -20.255  0.3986E+00  0.3201E+00
    -20.135  0.1314E+00  0.3359E+00
    -20.016  0.4215E+00  0.3862E+00
    -19.896  0.3495E+00  0.4280E+00
    -19.776  0.2458E+00  0.4574E+00
    -19.657  0.1658E+00  0.4772E+00
    -19.537  0.5696E+00  0.5453E+00
    -19.418  0.2308E+00  0.5729E+00
    -19.298  0.3452E+00  0.6142E+00
    -19.179  0.5130E-01  0.6203E+00
    -19.059  0.6469E+00  0.6977E+00
    -18.940  0.3772E+00  0.7428E+00
    -18.820  0.9044E-01  0.7536E+00
    -18.700  0.3417E+00  0.7944E+00
    -18.581  0.2214E+00  0.8209E+00
    -18.461  0.5742E+00  0.8896E+00
    -18.342  0.2961E+00  0.9250E+00
    -18.222  0.2633E+00  0.9564E+00
    -18.103  0.6369E-01  0.9640E+00
    -17.983  0.4620E+00  0.1019E+01
    -17.864  0.4532E+00  0.1073E+01
    -17.744  0.4106E+00  0.1123E+01
    -17.624  0.2449E+00  0.1152E+01
    -17.505  0.2631E+00  0.1183E+01
    -17.385  0.2051E-01  0.1186E+01
    -17.266  0.7519E+00  0.1276E+01
    -17.146  0.3707E+00  0.1320E+01
    -17.027  0.3396E+00  0.1361E+01
    -16.907  0.2147E+00  0.1386E+01
    -16.788  0.3520E+00  0.1428E+01
    -16.668  0.6176E-01  0.1436E+01
    -16.548  0.6079E+00  0.1508E+01
    -16.429  0.6523E+00  0.1586E+01
    -16.309  0.1687E+00  0.1606E+01
    -16.190  0.3835E+00  0.1652E+01
    -16.070  0.3337E+00  0.1692E+01
    -15.951  0.2925E+00  0.1727E+01
    -15.831  0.5278E+00  0.1790E+01
    -15.712  0.7204E+00  0.1876E+01
    -15.592  0.8483E-01  0.1887E+01
    -15.472  0.5173E-05  0.1887E+01
    -15.353  0.2412E-01  0.1889E+01
    -15.233  0.1815E+00  0.1911E+01
    -15.114  0.5141E+00  0.1973E+01
    -14.994  0.5505E-01  0.1979E+01
    -14.875  0.1703E+00  0.2000E+01
    -14.755  0.1900E+00  0.2022E+01
    -14.636  0.5883E+00  0.2093E+01
    -14.516  0.1738E+00  0.2113E+01
    -14.396  0.1037E+00  0.2126E+01
    -14.277  0.8267E+00  0.2225E+01
    -14.157  0.2254E+00  0.2252E+01
    -14.038  0.3864E+00  0.2298E+01
    -13.918  0.4022E+00  0.2346E+01
    -13.799  0.4831E+00  0.2404E+01
    -13.679  0.5839E+00  0.2473E+01
    -13.560  0.8458E-01  0.2484E+01
    -13.440  0.3241E+00  0.2522E+01
    -13.320  0.3814E+00  0.2568E+01
    -13.201  0.4970E+00  0.2627E+01
    -13.081  0.2549E+00  0.2658E+01
    -12.962  0.4260E-01  0.2663E+01
    -12.842  0.4777E+00  0.2720E+01
    -12.723  0.4035E+00  0.2768E+01
    -12.603  0.1454E+00  0.2786E+01
    -12.484  0.4424E+00  0.2839E+01
    -12.364  0.1768E-01  0.2841E+01
    -12.244  0.3500E+00  0.2882E+01
    -12.125  0.5020E+00  0.2942E+01
    -12.005  0.4770E+00  0.3000E+01
    -11.886  0.1776E+00  0.3021E+01
    -11.766  0.8814E-01  0.3031E+01
    -11.647  0.5674E+00  0.3099E+01
    -11.527  0.6350E+00  0.3175E+01
    -11.408  0.3216E+00  0.3213E+01
    -11.288  0.1637E+00  0.3233E+01
    -11.168  0.3631E+00  0.3276E+01
    -11.049  0.4893E+00  0.3335E+01
    -10.929  0.2555E+00  0.3366E+01
    -10.810  0.4612E+00  0.3421E+01
    -10.690  0.1351E+00  0.3437E+01
    -10.571  0.1092E+01  0.3567E+01
    -10.451  0.1714E+00  0.3588E+01
    -10.332  0.5982E-01  0.3595E+01
    -10.212  0.3165E+00  0.3633E+01
    -10.092  0.2663E+00  0.3665E+01
     -9.973  0.1125E+01  0.3799E+01
     -9.853  0.1438E+00  0.3816E+01
     -9.734  0.6234E+00  0.3891E+01
     -9.614  0.1214E+00  0.3905E+01
     -9.495  0.2313E+00  0.3933E+01
     -9.375  0.7995E+00  0.4029E+01
     -9.256  0.6817E+00  0.4110E+01
     -9.136  0.6434E+00  0.4187E+01
     -9.016  0.6823E+00  0.4269E+01
     -8.897  0.1205E+01  0.4413E+01
     -8.777  0.3763E+00  0.4458E+01
     -8.658  0.8752E+00  0.4562E+01
     -8.538  0.8354E+00  0.4662E+01
     -8.419  0.6940E+00  0.4745E+01
     -8.299  0.1157E+01  0.4884E+01
     -8.180  0.1387E+01  0.5049E+01
     -8.060  0.1060E+01  0.5176E+01
     -7.940  0.4649E+00  0.5232E+01
     -7.821  0.1304E+01  0.5388E+01
     -7.701  0.7347E+00  0.5475E+01
     -7.582  0.8726E+00  0.5580E+01
     -7.462  0.4289E+00  0.5631E+01
     -7.343  0.1135E+01  0.5767E+01
     -7.223  0.8567E+00  0.5869E+01
     -7.104  0.4378E+00  0.5921E+01
     -6.984  0.2898E+00  0.5956E+01
     -6.864  0.8065E+00  0.6053E+01
     -6.745  0.1233E+01  0.6200E+01
     -6.625  0.4212E+00  0.6250E+01
     -6.506  0.2004E+00  0.6274E+01
     -6.386  0.8953E+00  0.6381E+01
     -6.267  0.6175E+00  0.6455E+01
     -6.147  0.6125E+00  0.6528E+01
     -6.028  0.3640E+00  0.6572E+01
     -5.908  0.9627E+00  0.6687E+01
     -5.788  0.4894E+00  0.6746E+01
     -5.669  0.3414E+00  0.6786E+01
     -5.549  0.4371E+00  0.6839E+01
     -5.430  0.9237E+00  0.6949E+01
     -5.310  0.6831E+00  0.7031E+01
     -5.191  0.4386E+00  0.7083E+01
     -5.071  0.3267E+00  0.7122E+01
     -4.952  0.5090E+00  0.7183E+01
     -4.832  0.6423E+00  0.7260E+01
     -4.712  0.5789E+00  0.7329E+01
     -4.593  0.4917E+00  0.7388E+01
     -4.473  0.3432E+00  0.7429E+01
     -4.354  0.1939E+00  0.7452E+01
     -4.234  0.2369E+00  0.7480E+01
     -4.115  0.4809E+00  0.7538E+01
     -3.995  0.1457E+01  0.7712E+01
     -3.876  0.1315E+00  0.7728E+01
     -3.756  0.8160E-01  0.7738E+01
     -3.636  0.1102E+00  0.7751E+01
     -3.517  0.3051E+00  0.7787E+01
     -3.397  0.4714E+00  0.7844E+01
     -3.278  0.3587E+00  0.7886E+01
     -3.158  0.1280E-01  0.7888E+01
     -3.039  0.1719E+00  0.7909E+01
     -2.919  0.6317E-02  0.7909E+01
     -2.800  0.7525E-01  0.7918E+01
     -2.680  0.3259E+00  0.7957E+01
     -2.560  0.1657E+00  0.7977E+01
     -2.441  0.2426E-02  0.7977E+01
     -2.321  0.6385E-07  0.7977E+01
     -2.202  0.1054E-01  0.7979E+01
     -2.082  0.1722E+00  0.7999E+01
     -1.963  0.6995E-02  0.8000E+01
     -1.843  0.2223E-07  0.8000E+01
     -1.724  0.0000E+00  0.8000E+01
     -1.604  0.2680E-10  0.8000E+01
     -1.484  0.3252E-03  0.8000E+01
     -1.365  0.1278E+00  0.8015E+01
     -1.245  0.6157E-01  0.8023E+01
     -1.126  0.1184E-04  0.8023E+01
     -1.006  0.1184E-03  0.8023E+01
     -0.887  0.1091E+00  0.8036E+01
     -0.767  0.3939E+00  0.8083E+01
     -0.648  0.6824E-01  0.8091E+01
     -0.528  0.1618E+00  0.8110E+01
     -0.408  0.2583E-01  0.8113E+01
     -0.289  0.5026E-01  0.8119E+01
     -0.169  0.1008E+01  0.8240E+01
     -0.050  0.5779E+00  0.8309E+01
      0.070  0.4502E+00  0.8363E+01
      0.189  0.3649E+00  0.8407E+01
      0.309  0.3942E+00  0.8454E+01
      0.428  0.3624E+00  0.8497E+01
      0.548  0.2253E+00  0.8524E+01
      0.668  0.8640E+00  0.8627E+01
      0.787  0.6619E-01  0.8635E+01
      0.907  0.3992E-01  0.8640E+01
      1.026  0.3563E+00  0.8683E+01
      1.146  0.3502E+00  0.8724E+01
      1.265  0.1898E+00  0.8747E+01
      1.385  0.2114E+00  0.8772E+01
      1.504  0.4812E+00  0.8830E+01
      1.624  0.6751E+00  0.8911E+01
      1.743  0.3630E+00  0.8954E+01
      1.863  0.1340E+00  0.8970E+01
      1.983  0.5766E+00  0.9039E+01
      2.102  0.2993E+00  0.9075E+01
      2.222  0.6254E+00  0.9150E+01
      2.341  0.6827E+00  0.9231E+01
      2.461  0.3247E+00  0.9270E+01
      2.580  0.1330E+00  0.9286E+01
      2.700  0.9210E+00  0.9396E+01
      2.819  0.7308E+00  0.9483E+01
      2.939  0.2138E+00  0.9509E+01
      3.059  0.7086E+00  0.9594E+01
      3.178  0.8300E+00  0.9693E+01
      3.298  0.5989E+00  0.9764E+01
      3.417  0.1172E+01  0.9905E+01
      3.537  0.3113E+00  0.9942E+01
      3.656  0.5769E+00  0.1001E+02
      3.776  0.9632E+00  0.1013E+02
      3.895  0.1357E+01  0.1029E+02
      4.015  0.5089E+00  0.1035E+02
      4.135  0.6890E+00  0.1043E+02
      4.254  0.9905E+00  0.1055E+02
      4.374  0.7850E+00  0.1064E+02
      4.493  0.1301E+01  0.1080E+02
      4.613  0.7289E+00  0.1089E+02
      4.732  0.6703E+00  0.1097E+02
      4.852  0.7490E+00  0.1106E+02
      4.971  0.6567E+00  0.1113E+02
      5.091  0.4079E+00  0.1118E+02
      5.211  0.1186E+01  0.1133E+02
      5.330  0.1491E+01  0.1150E+02
      5.450  0.2606E+00  0.1153E+02
      5.569  0.8926E+00  0.1164E+02
      5.689  0.1078E+01  0.1177E+02
      5.808  0.1782E+01  0.1198E+02
      5.928  0.1105E+01  0.1212E+02
      6.047  0.1234E+01  0.1226E+02
      6.167  0.1422E+01  0.1243E+02
      6.287  0.9269E+00  0.1254E+02
      6.406  0.1680E+01  0.1274E+02
      6.526  0.1152E+01  0.1288E+02
      6.645  0.1737E+01  0.1309E+02
      6.765  0.1461E+01  0.1326E+02
      6.884  0.3381E+00  0.1330E+02
      7.004  0.1062E+01  0.1343E+02
      7.123  0.1468E+01  0.1361E+02
      7.243  0.1169E+01  0.1375E+02
      7.363  0.1007E+01  0.1387E+02
      7.482  0.8315E+00  0.1397E+02
      7.602  0.3750E+00  0.1401E+02
      7.721  0.6614E+00  0.1409E+02
      7.841  0.6314E-01  0.1410E+02
      7.960  0.5660E+00  0.1417E+02
      8.080  0.1412E+01  0.1433E+02
      8.199  0.9777E+00  0.1445E+02
      8.319  0.3440E+00  0.1449E+02
      8.439  0.8406E+00  0.1459E+02
      8.558  0.7740E+00  0.1469E+02
      8.678  0.4538E+00  0.1474E+02
      8.797  0.8428E+00  0.1484E+02
      8.917  0.5345E+00  0.1490E+02
      9.036  0.1514E+01  0.1509E+02
      9.156  0.9060E+00  0.1519E+02
      9.275  0.6790E+00  0.1528E+02
      9.395  0.8153E+00  0.1537E+02
      9.515  0.7849E+00  0.1547E+02
      9.634  0.8152E+00  0.1556E+02
      9.754  0.6043E+00  0.1564E+02
      9.873  0.5399E+00  0.1570E+02
      9.993  0.3699E+00  0.1574E+02
     10.112  0.2295E+00  0.1577E+02
     10.232  0.4413E+00  0.1583E+02
     10.351  0.1336E+00  0.1584E+02
     10.471  0.3730E-03  0.1584E+02
     10.591  0.2727E-01  0.1584E+02
     10.710  0.5763E+00  0.1591E+02
     10.830  0.1556E+00  0.1593E+02
     10.949  0.1234E+00  0.1595E+02
     11.069  0.1728E+00  0.1597E+02
     11.188  0.9579E-01  0.1598E+02
     11.308  0.1714E+00  0.1600E+02
     11.427  0.5621E-02  0.1600E+02
     11.547  0.1309E-07  0.1600E+02
     11.667  0.0000E+00  0.1600E+02
     11.786  0.0000E+00  0.1600E+02
     11.906  0.0000E+00  0.1600E+02
     12.025  0.0000E+00  0.1600E+02
     12.145  0.0000E+00  0.1600E+02
     12.264  0.0000E+00  0.1600E+02
     12.384  0.0000E+00  0.1600E+02
     12.503  0.0000E+00  0.1600E+02
     12.623  0.0000E+00  0.1600E+02
     12.743  0.0000E+00  0.1600E+02
     12.862  0.0000E+00  0.1600E+02
     12.982  0.0000E+00  0.1600E+02
     12.98167475    -22.88484668  301     -1.83568192      1.00000000
    -22.885  0.0000E+00  0.0000E+00  0.0000E+00  0.0000E+00  0.0000E+00  0.0000E+00  0.0000E+00  0.0000E+00  0.0000E+00
    -22.765  0.0000E+00  0.0000E+00  0.0000E+00  0.0000E+00  0.0000E+00  0.0000E+00  0.0000E+00  0.0000E+00  0.0000E+00
    -22.646  0.0000E+00  0.0000E+00  0.0000E+00  0.0000E+00  0.0000E+00  0.0000E+00  0.0000E+00  0.0000E+00  0.0000E+00
    -22.526  0.0000E+00  0.0000E+00  0.0000E+00  0.0000E+00  0.0000E+00  0.0000E+00  0.0000E+00  0.0000E+00  0.0000E+00
    -22.407  0.0000E+00  0.0000E+00  0.0000E+00  0.0000E+00  0.0000E+00  0.0000E+00  0.0000E+00  0.0000E+00  0.0000E+00
    -22.287  0.0000E+00  0.0000E+00  0.0000E+00  0.0000E+00  0.0000E+00  0.0000E+00  0.0000E+00  0.0000E+00  0.0000E+00
    -22.168  0.0000E+00  0.0000E+00  0.0000E+00  0.0000E+00  0.0000E+00  0.0000E+00  0.0000E+00  0.0000E+00  0.0000E+00
    -22.048  0.0000E+00  0.0000E+00  0.0000E+00  0.0000E+00  0.0000E+00  0.0000E+00  0.0000E+00  0.0000E+00  0.0000E+00
    -21.928  0.0000E+00  0.0000E+00  0.0000E+00  0.0000E+00  0.0000E+00  0.0000E+00  0.0000E+00  0.0000E+00  0.0000E+00
    -21.809  0.0000E+00  0.0000E+00  0.0000E+00  0.0000E+00  0.0000E+00  0.0000E+00  0.0000E+00  0.0000E+00  0.0000E+00
    -21.689  0.0000E+00  0.0000E+00  0.0000E+00  0.0000E+00  0.0000E+00  0.0000E+00  0.0000E+00  0.0000E+00  0.0000E+00
    -21.570  0.0000E+00  0.0000E+00  0.0000E+00  0.0000E+00  0.0000E+00  0.0000E+00  0.0000E+00  0.0000E+00  0.0000E+00
    -21.450  0.1604E-09  0.2436E-15  0.3720E-25  0.7309E-15  0.0000E+00  0.0000E+00  0.0000E+00  0.0000E+00  0.0000E+00
    -21.331  0.1796E-03  0.1442E-07  0.3721E-19  0.4327E-07  0.0000E+00  0.0000E+00  0.0000E+00  0.0000E+00  0.0000E+00
    -21.211  0.3896E-01  0.2190E-04  0.2077E-17  0.6859E-04  0.0000E+00  0.0000E+00  0.0000E+00  0.0000E+00  0.0000E+00
    -21.092  0.1006E+00  0.8280E-04  0.2785E-18  0.6744E-03  0.0000E+00  0.0000E+00  0.0000E+00  0.0000E+00  0.0000E+00
    -20.972  0.7737E-01  0.1379E-03  0.2388E-19  0.9626E-03  0.0000E+00  0.0000E+00  0.0000E+00  0.0000E+00  0.0000E+00
    -20.852  0.1262E+00  0.2789E-03  0.1347E-18  0.2533E-02  0.0000E+00  0.0000E+00  0.0000E+00  0.0000E+00  0.0000E+00
    -20.733  0.5793E-01  0.2146E-03  0.3798E-18  0.1614E-02  0.0000E+00  0.0000E+00  0.0000E+00  0.0000E+00  0.0000E+00
    -20.613  0.1470E+00  0.3419E-03  0.1684E-17  0.5286E-02  0.0000E+00  0.0000E+00  0.0000E+00  0.0000E+00  0.0000E+00
    -20.494  0.5848E-01  0.6511E-03  0.1729E-16  0.2136E-02  0.0000E+00  0.0000E+00  0.0000E+00  0.0000E+00  0.0000E+00
    -20.374  0.1117E+00  0.1915E-03  0.1560E-17  0.6237E-02  0.0000E+00  0.0000E+00  0.0000E+00  0.0000E+00  0.0000E+00
    -20.255  0.1227E+00  0.7335E-03  0.5031E-19  0.6970E-02  0.0000E+00  0.0000E+00  0.0000E+00  0.0000E+00  0.0000E+00
    -20.135  0.4008E-01  0.7077E-03  0.9946E-20  0.2313E-02  0.0000E+00  0.0000E+00  0.0000E+00  0.0000E+00  0.0000E+00
    -20.016  0.1279E+00  0.5932E-03  0.7966E-20  0.1001E-01  0.0000E+00  0.0000E+00  0.0000E+00  0.0000E+00  0.0000E+00
    -19.896  0.1056E+00  0.6789E-03  0.3748E-20  0.8734E-02  0.0000E+00  0.0000E+00  0.0000E+00  0.0000E+00  0.0000E+00
    -19.776  0.7391E-01  0.9105E-03  0.1545E-20  0.6130E-02  0.0000E+00  0.0000E+00  0.0000E+00  0.0000E+00  0.0000E+00
    -19.657  0.4928E-01  0.9169E-03  0.3740E-21  0.4621E-02  0.0000E+00  0.0000E+00  0.0000E+00  0.0000E+00  0.0000E+00
    -19.537  0.1688E+00  0.1114E-02  0.6156E-18  0.1850E-01  0.0000E+00  0.0000E+00  0.0000E+00  0.0000E+00  0.0000E+00
    -19.418  0.6814E-01  0.5403E-03  0.7620E-18  0.7771E-02  0.0000E+00  0.0000E+00  0.0000E+00  0.0000E+00  0.0000E+00
    -19.298  0.1011E+00  0.1971E-02  0.9209E-21  0.1157E-01  0.0000E+00  0.0000E+00  0.0000E+00  0.0000E+00  0.0000E+00
    -19.179  0.1491E-01  0.1283E-03  0.1403E-21  0.2043E-02  0.0000E+00  0.0000E+00  0.0000E+00  0.0000E+00  0.0000E+00
    -19.059  0.1871E+00  0.2139E-02  0.2908E-20  0.2652E-01  0.0000E+00  0.0000E+00  0.0000E+00  0.0000E+00  0.0000E+00
    -18.940  0.1085E+00  0.1438E-02  0.1550E-20  0.1609E-01  0.0000E+00  0.0000E+00  0.0000E+00  0.0000E+00  0.0000E+00
    -18.820  0.2595E-01  0.3771E-03  0.3179E-21  0.3917E-02  0.0000E+00  0.0000E+00  0.0000E+00  0.0000E+00  0.0000E+00
    -18.700  0.9716E-01  0.2759E-02  0.7461E-23  0.1469E-01  0.0000E+00  0.0000E+00  0.0000E+00  0.0000E+00  0.0000E+00
    -18.581  0.6241E-01  0.3190E-03  0.1303E-20  0.1172E-01  0.0000E+00  0.0000E+00  0.0000E+00  0.0000E+00  0.0000E+00
    -18.461  0.1613E+00  0.1812E-02  0.1289E-20  0.3028E-01  0.0000E+00  0.0000E+00  0.0000E+00  0.0000E+00  0.0000E+00
    -18.342  0.8284E-01  0.2434E-02  0.7559E-22  0.1463E-01  0.0000E+00  0.0000E+00  0.0000E+00  0.0000E+00  0.0000E+00
    -18.222  0.7334E-01  0.1480E-02  0.1680E-21  0.1413E-01  0.0000E+00  0.0000E+00  0.0000E+00  0.0000E+00  0.0000E+00
    -18.103  0.1756E-01  0.6756E-03  0.1766E-22  0.3373E-02  0.0000E+00  0.0000E+00  0.0000E+00  0.0000E+00  0.0000E+00
    -17.983  0.1270E+00  0.3467E-02  0.1107E-21  0.2636E-01  0.0000E+00  0.0000E+00  0.0000E+00  0.0000E+00  0.0000E+00
    -17.864  0.1238E+00  0.6466E-03  0.7359E-22  0.2971E-01  0.0000E+00  0.0000E+00  0.0000E+00  0.0000E+00  0.0000E+00
    -17.744  0.1117E+00  0.2469E-02  0.9903E-22  0.2581E-01  0.0000E+00  0.0000E+00  0.0000E+00  0.0000E+00  0.0000E+00
    -17.624  0.6648E-01  0.3029E-02  0.4594E-23  0.1420E-01  0.0000E+00  0.0000E+00  0.0000E+00  0.0000E+00  0.0000E+00
    -17.505  0.7117E-01  0.2059E-02  0.4495E-23  0.1682E-01  0.0000E+00  0.0000E+00  0.0000E+00  0.0000E+00  0.0000E+00
    -17.385  0.5482E-02  0.1520E-03  0.1754E-19  0.1423E-02  0.0000E+00  0.0000E+00  0.0000E+00  0.0000E+00  0.0000E+00
    -17.266  0.2007E+00  0.5156E-02  0.6202E-18  0.5293E-01  0.0000E+00  0.0000E+00  0.0000E+00  0.0000E+00  0.0000E+00
    -17.146  0.9840E-01  0.1310E-02  0.5589E-19  0.2802E-01  0.0000E+00  0.0000E+00  0.0000E+00  0.0000E+00  0.0000E+00
    -17.027  0.9009E-01  0.2009E-02  0.3938E-22  0.2539E-01  0.0000E+00  0.0000E+00  0.0000E+00  0.0000E+00  0.0000E+00
    -16.907  0.5747E-01  0.3618E-02  0.1642E-23  0.1342E-01  0.0000E+00  0.0000E+00  0.0000E+00  0.0000E+00  0.0000E+00
    -16.788  0.9378E-01  0.3683E-02  0.3213E-25  0.2504E-01  0.0000E+00  0.0000E+00  0.0000E+00  0.0000E+00  0.0000E+00
    -16.668  0.1626E-01  0.4432E-03  0.3616E-23  0.4814E-02  0.0000E+00  0.0000E+00  0.0000E+00  0.0000E+00  0.0000E+00
    -16.548  0.1585E+00  0.3153E-02  0.3208E-22  0.5081E-01  0.0000E+00  0.0000E+00  0.0000E+00  0.0000E+00  0.0000E+00
    -16.429  0.1726E+00  0.5746E-02  0.4710E-22  0.5053E-01  0.0000E+00  0.0000E+00  0.0000E+00  0.0000E+00  0.0000E+00
    -16.309  0.4473E-01  0.1271E-02  0.4853E-21  0.1349E-01  0.0000E+00  0.0000E+00  0.0000E+00  0.0000E+00  0.0000E+00
    -16.190  0.1045E+00  0.4477E-02  0.1917E-18  0.2710E-01  0.0000E+00  0.0000E+00  0.0000E+00  0.0000E+00  0.0000E+00
    -16.070  0.9406E-01  0.4458E-02  0.2406E-18  0.2100E-01  0.0000E+00  0.0000E+00  0.0000E+00  0.0000E+00  0.0000E+00
    -15.951  0.8494E-01  0.4247E-02  0.6219E-19  0.1638E-01  0.0000E+00  0.0000E+00  0.0000E+00  0.0000E+00  0.0000E+00
    -15.831  0.1355E+00  0.3667E-02  0.8805E-22  0.4857E-01  0.0000E+00  0.0000E+00  0.0000E+00  0.0000E+00  0.0000E+00
    -15.712  0.1961E+00  0.9400E-02  0.1423E-20  0.5376E-01  0.0000E+00  0.0000E+00  0.0000E+00  0.0000E+00  0.0000E+00
    -15.592  0.2331E-01  0.1116E-02  0.7239E-22  0.6180E-02  0.0000E+00  0.0000E+00  0.0000E+00  0.0000E+00  0.0000E+00
    -15.472  0.1415E-05  0.7630E-07  0.3756E-27  0.3766E-06  0.0000E+00  0.0000E+00  0.0000E+00  0.0000E+00  0.0000E+00
    -15.353  0.6704E-02  0.8516E-03  0.1759E-23  0.1284E-02  0.0000E+00  0.0000E+00  0.0000E+00  0.0000E+00  0.0000E+00
    -15.233  0.5008E-01  0.6090E-02  0.1275E-22  0.1028E-01  0.0000E+00  0.0000E+00  0.0000E+00  0.0000E+00  0.0000E+00
    -15.114  0.1321E+00  0.8948E-02  0.1964E-22  0.4566E-01  0.0000E+00  0.0000E+00  0.0000E+00  0.0000E+00  0.0000E+00
    -14.994  0.1222E-01  0.1425E-02  0.1365E-23  0.5879E-02  0.0000E+00  0.0000E+00  0.0000E+00  0.0000E+00  0.0000E+00
    -14.875  0.2363E-01  0.8327E-02  0.4873E-22  0.2497E-01  0.0000E+00  0.0000E+00  0.0000E+00  0.0000E+00  0.0000E+00
    -14.755  0.2871E-01  0.8943E-02  0.1609E-19  0.2669E-01  0.0000E+00  0.0000E+00  0.0000E+00  0.0000E+00  0.0000E+00
    -14.636  0.9724E-01  0.3128E-01  0.3558E-19  0.7359E-01  0.0000E+00  0.0000E+00  0.0000E+00  0.0000E+00  0.0000E+00
    -14.516  0.3846E-01  0.9441E-02  0.1071E-20  0.1455E-01  0.0000E+00  0.0000E+00  0.0000E+00  0.0000E+00  0.0000E+00
    -14.396  0.1696E-01  0.6033E-02  0.5275E-25  0.1289E-01  0.0000E+00  0.0000E+00  0.0000E+00  0.0000E+00  0.0000E+00
    -14.277  0.1354E+00  0.4568E-01  0.1926E-24  0.1052E+00  0.0000E+00  0.0000E+00  0.0000E+00  0.0000E+00  0.0000E+00
    -14.157  0.4274E-01  0.1302E-01  0.4592E-22  0.2435E-01  0.0000E+00  0.0000E+00  0.0000E+00  0.0000E+00  0.0000E+00
    -14.038  0.7274E-01  0.2302E-01  0.6579E-22  0.4151E-01  0.0000E+00  0.0000E+00  0.0000E+00  0.0000E+00  0.0000E+00
    -13.918  0.7835E-01  0.2405E-01  0.1761E-23  0.4214E-01  0.0000E+00  0.0000E+00  0.0000E+00  0.0000E+00  0.0000E+00
    -13.799  0.8355E-01  0.2855E-01  0.2096E-24  0.5859E-01  0.0000E+00  0.0000E+00  0.0000E+00  0.0000E+00  0.0000E+00
    -13.679  0.1120E+00  0.3727E-01  0.5085E-24  0.6104E-01  0.0000E+00  0.0000E+00  0.0000E+00  0.0000E+00  0.0000E+00
    -13.560  0.1609E-01  0.5703E-02  0.1887E-24  0.8799E-02  0.0000E+00  0.0000E+00  0.0000E+00  0.0000E+00  0.0000E+00
    -13.440  0.5620E-01  0.2280E-01  0.7604E-24  0.3674E-01  0.0000E+00  0.0000E+00  0.0000E+00  0.0000E+00  0.0000E+00
    -13.320  0.6431E-01  0.2120E-01  0.5913E-24  0.5028E-01  0.0000E+00  0.0000E+00  0.0000E+00  0.0000E+00  0.0000E+00
    -13.201  0.9668E-01  0.3143E-01  0.3127E-23  0.5411E-01  0.0000E+00  0.0000E+00  0.0000E+00  0.0000E+00  0.0000E+00
    -13.081  0.4262E-01  0.1727E-01  0.3802E-23  0.3136E-01  0.0000E+00  0.0000E+00  0.0000E+00  0.0000E+00  0.0000E+00
    -12.962  0.7845E-02  0.2906E-02  0.5341E-25  0.4907E-02  0.0000E+00  0.0000E+00  0.0000E+00  0.0000E+00  0.0000E+00
    -12.842  0.8434E-01  0.3012E-01  0.1675E-23  0.5970E-01  0.0000E+00  0.0000E+00  0.0000E+00  0.0000E+00  0.0000E+00
    -12.723  0.6419E-01  0.2494E-01  0.3798E-22  0.5564E-01  0.0000E+00  0.0000E+00  0.0000E+00  0.0000E+00  0.0000E+00
    -12.603  0.2686E-01  0.8949E-02  0.2008E-20  0.1812E-01  0.0000E+00  0.0000E+00  0.0000E+00  0.0000E+00  0.0000E+00
    -12.484  0.7773E-01  0.2979E-01  0.3055E-20  0.5550E-01  0.0000E+00  0.0000E+00  0.0000E+00  0.0000E+00  0.0000E+00
    -12.364  0.2788E-02  0.1122E-02  0.1281E-22  0.2504E-02  0.0000E+00  0.0000E+00  0.0000E+00  0.0000E+00  0.0000E+00
    -12.244  0.5207E-01  0.2139E-01  0.6885E-23  0.5262E-01  0.0000E+00  0.0000E+00  0.0000E+00  0.0000E+00  0.0000E+00
    -12.125  0.5276E-01  0.5393E-01  0.1809E-21  0.6964E-01  0.0000E+00  0.0000E+00  0.0000E+00  0.0000E+00  0.0000E+00
    -12.005  0.7256E-01  0.3915E-01  0.7388E-20  0.6369E-01  0.0000E+00  0.0000E+00  0.0000E+00  0.0000E+00  0.0000E+00
    -11.886  0.9354E-02  0.3163E-01  0.9281E-21  0.1931E-01  0.0000E+00  0.0000E+00  0.0000E+00  0.0000E+00  0.0000E+00
    -11.766  0.1254E-01  0.5032E-02  0.8336E-24  0.1448E-01  0.0000E+00  0.0000E+00  0.0000E+00  0.0000E+00  0.0000E+00
    -11.647  0.6933E-01  0.5305E-01  0.3135E-22  0.8193E-01  0.0000E+00  0.0000E+00  0.0000E+00  0.0000E+00  0.0000E+00
    -11.527  0.6699E-01  0.8019E-01  0.8432E-23  0.8076E-01  0.0000E+00  0.0000E+00  0.0000E+00  0.0000E+00  0.0000E+00
    -11.408  0.1419E-01  0.6672E-01  0.1383E-22  0.2944E-01  0.0000E+00  0.0000E+00  0.0000E+00  0.0000E+00  0.0000E+00
    -11.288  0.1398E-01  0.2532E-01  0.5269E-23  0.1904E-01  0.0000E+00  0.0000E+00  0.0000E+00  0.0000E+00  0.0000E+00
    -11.168  0.5268E-01  0.2178E-01  0.2119E-23  0.6065E-01  0.0000E+00  0.0000E+00  0.0000E+00  0.0000E+00  0.0000E+00
    -11.049  0.6689E-01  0.3429E-01  0.8241E-24  0.8008E-01  0.0000E+00  0.0000E+00  0.0000E+00  0.0000E+00  0.0000E+00
    -10.929  0.1161E-01  0.5426E-01  0.9475E-23  0.2317E-01  0.0000E+00  0.0000E+00  0.0000E+00  0.0000E+00  0.0000E+00
    -10.810  0.2063E-01  0.1022E+00  0.2302E-22  0.3978E-01  0.0000E+00  0.0000E+00  0.0000E+00  0.0000E+00  0.0000E+00
    -10.690  0.7524E-02  0.2737E-01  0.1720E-23  0.1321E-01  0.0000E+00  0.0000E+00  0.0000E+00  0.0000E+00  0.0000E+00
    -10.571  0.1152E+00  0.1230E+00  0.4013E-22  0.1646E+00  0.0000E+00  0.0000E+00  0.0000E+00  0.0000E+00  0.0000E+00
    -10.451  0.2166E-01  0.1219E-01  0.6195E-23  0.3004E-01  0.0000E+00  0.0000E+00  0.0000E+00  0.0000E+00  0.0000E+00
    -10.332  0.1687E-02  0.1485E-01  0.5617E-20  0.4501E-02  0.0000E+00  0.0000E+00  0.0000E+00  0.0000E+00  0.0000E+00
    -10.212  0.8912E-02  0.7860E-01  0.2972E-19  0.2380E-01  0.0000E+00  0.0000E+00  0.0000E+00  0.0000E+00  0.0000E+00
    -10.092  0.1612E-01  0.5182E-01  0.3153E-21  0.2988E-01  0.0000E+00  0.0000E+00  0.0000E+00  0.0000E+00  0.0000E+00
     -9.973  0.9944E-01  0.1495E+00  0.4694E-22  0.1694E+00  0.0000E+00  0.0000E+00  0.0000E+00  0.0000E+00  0.0000E+00
     -9.853  0.7503E-02  0.3013E-01  0.2423E-22  0.1504E-01  0.0000E+00  0.0000E+00  0.0000E+00  0.0000E+00  0.0000E+00
     -9.734  0.3619E-01  0.1203E+00  0.7127E-21  0.7310E-01  0.0000E+00  0.0000E+00  0.0000E+00  0.0000E+00  0.0000E+00
     -9.614  0.4641E-02  0.2814E-01  0.8770E-15  0.1107E-01  0.0000E+00  0.0000E+00  0.0000E+00  0.0000E+00  0.0000E+00
     -9.495  0.1995E-01  0.2704E-01  0.2867E-06  0.3973E-01  0.0000E+00  0.0000E+00  0.0000E+00  0.0000E+00  0.0000E+00
     -9.375  0.5385E-01  0.1250E+00  0.2827E-02  0.1139E+00  0.0000E+00  0.0000E+00  0.0000E+00  0.0000E+00  0.0000E+00
     -9.256  0.1436E-01  0.1219E+00  0.4329E-01  0.4383E-01  0.0000E+00  0.0000E+00  0.0000E+00  0.0000E+00  0.0000E+00
     -9.136  0.1011E-01  0.8570E-01  0.6505E-01  0.3253E-01  0.0000E+00  0.0000E+00  0.0000E+00  0.0000E+00  0.0000E+00
     -9.016  0.4015E-01  0.6743E-01  0.3420E-01  0.9166E-01  0.0000E+00  0.0000E+00  0.0000E+00  0.0000E+00  0.0000E+00
     -8.897  0.3881E-01  0.1697E+00  0.7914E-01  0.1057E+00  0.0000E+00  0.0000E+00  0.0000E+00  0.0000E+00  0.0000E+00
     -8.777  0.1674E-01  0.3017E-01  0.3136E-01  0.4124E-01  0.0000E+00  0.0000E+00  0.0000E+00  0.0000E+00  0.0000E+00
     -8.658  0.7504E-02  0.1264E+00  0.8958E-01  0.4381E-01  0.0000E+00  0.0000E+00  0.0000E+00  0.0000E+00  0.0000E+00
     -8.538  0.1201E-01  0.1725E+00  0.4177E-01  0.5949E-01  0.0000E+00  0.0000E+00  0.0000E+00  0.0000E+00  0.0000E+00
     -8.419  0.2062E-01  0.1092E+00  0.3490E-01  0.7523E-01  0.0000E+00  0.0000E+00  0.0000E+00  0.0000E+00  0.0000E+00
     -8.299  0.3575E-01  0.1412E+00  0.8362E-01  0.1206E+00  0.0000E+00  0.0000E+00  0.0000E+00  0.0000E+00  0.0000E+00
     -8.180  0.2021E-01  0.2590E+00  0.7840E-01  0.1182E+00  0.0000E+00  0.0000E+00  0.0000E+00  0.0000E+00  0.0000E+00
     -8.060  0.1374E-01  0.2606E+00  0.1602E-01  0.1082E+00  0.0000E+00  0.0000E+00  0.0000E+00  0.0000E+00  0.0000E+00
     -7.940  0.4511E-03  0.6114E-01  0.5624E-01  0.2080E-01  0.0000E+00  0.0000E+00  0.0000E+00  0.0000E+00  0.0000E+00
     -7.821  0.1496E-01  0.2170E+00  0.9615E-01  0.1063E+00  0.0000E+00  0.0000E+00  0.0000E+00  0.0000E+00  0.0000E+00
     -7.701  0.1920E-01  0.6450E-01  0.7317E-01  0.7296E-01  0.0000E+00  0.0000E+00  0.0000E+00  0.0000E+00  0.0000E+00
     -7.582  0.4731E-02  0.2413E+00  0.1239E-01  0.6983E-01  0.0000E+00  0.0000E+00  0.0000E+00  0.0000E+00  0.0000E+00
     -7.462  0.7081E-02  0.3882E-01  0.4826E-01  0.3738E-01  0.0000E+00  0.0000E+00  0.0000E+00  0.0000E+00  0.0000E+00
     -7.343  0.2288E-01  0.1128E+00  0.1116E+00  0.1124E+00  0.0000E+00  0.0000E+00  0.0000E+00  0.0000E+00  0.0000E+00
     -7.223  0.1053E-01  0.1496E+00  0.5276E-01  0.8391E-01  0.0000E+00  0.0000E+00  0.0000E+00  0.0000E+00  0.0000E+00
     -7.104  0.2525E-02  0.3141E-01  0.6909E-01  0.1738E-01  0.0000E+00  0.0000E+00  0.0000E+00  0.0000E+00  0.0000E+00
     -6.984  0.1451E-02  0.7055E-01  0.1602E-01  0.1225E-01  0.0000E+00  0.0000E+00  0.0000E+00  0.0000E+00  0.0000E+00
     -6.864  0.3200E-02  0.1670E+00  0.5541E-01  0.4979E-01  0.0000E+00  0.0000E+00  0.0000E+00  0.0000E+00  0.0000E+00
     -6.745  0.1899E-01  0.1255E+00  0.1210E+00  0.1321E+00  0.0000E+00  0.0000E+00  0.0000E+00  0.0000E+00  0.0000E+00
     -6.625  0.3497E-02  0.3690E-02  0.7907E-01  0.2228E-01  0.0000E+00  0.0000E+00  0.0000E+00  0.0000E+00  0.0000E+00
     -6.506  0.6817E-02  0.1054E-01  0.9019E-02  0.4684E-01  0.0000E+00  0.0000E+00  0.0000E+00  0.0000E+00  0.0000E+00
     -6.386  0.1390E-02  0.1779E+00  0.7855E-01  0.3904E-01  0.0000E+00  0.0000E+00  0.0000E+00  0.0000E+00  0.0000E+00
     -6.267  0.6176E-02  0.1295E+00  0.2576E-01  0.6491E-01  0.0000E+00  0.0000E+00  0.0000E+00  0.0000E+00  0.0000E+00
     -6.147  0.2192E-02  0.5551E-02  0.1281E+00  0.1499E-01  0.0000E+00  0.0000E+00  0.0000E+00  0.0000E+00  0.0000E+00
     -6.028  0.1671E-03  0.1136E-01  0.7443E-01  0.5475E-02  0.0000E+00  0.0000E+00  0.0000E+00  0.0000E+00  0.0000E+00
     -5.908  0.1079E-01  0.1057E+00  0.7924E-01  0.1332E+00  0.0000E+00  0.0000E+00  0.0000E+00  0.0000E+00  0.0000E+00
     -5.788  0.2057E-02  0.1477E+00  0.4063E-02  0.3894E-01  0.0000E+00  0.0000E+00  0.0000E+00  0.0000E+00  0.0000E+00
     -5.669  0.2762E-05  0.7274E-03  0.7971E-01  0.1309E-03  0.0000E+00  0.0000E+00  0.0000E+00  0.0000E+00  0.0000E+00
     -5.549  0.3005E-03  0.2851E-01  0.7809E-01  0.1335E-01  0.0000E+00  0.0000E+00  0.0000E+00  0.0000E+00  0.0000E+00
     -5.430  0.3516E-02  0.1265E+00  0.1025E+00  0.6762E-01  0.0000E+00  0.0000E+00  0.0000E+00  0.0000E+00  0.0000E+00
     -5.310  0.1934E-02  0.6076E-01  0.9527E-01  0.5145E-01  0.0000E+00  0.0000E+00  0.0000E+00  0.0000E+00  0.0000E+00
     -5.191  0.1141E-02  0.1103E-01  0.7882E-01  0.3207E-01  0.0000E+00  0.0000E+00  0.0000E+00  0.0000E+00  0.0000E+00
     -5.071  0.2086E-04  0.9518E-01  0.1227E-01  0.1720E-01  0.0000E+00  0.0000E+00  0.0000E+00  0.0000E+00  0.0000E+00
     -4.952  0.7906E-03  0.4510E-01  0.6935E-01  0.4538E-01  0.0000E+00  0.0000E+00  0.0000E+00  0.0000E+00  0.0000E+00
     -4.832  0.2419E-03  0.5935E-01  0.1002E+00  0.3300E-01  0.0000E+00  0.0000E+00  0.0000E+00  0.0000E+00  0.0000E+00
     -4.712  0.2102E-07  0.1437E-01  0.1240E+00  0.1225E-01  0.0000E+00  0.0000E+00  0.0000E+00  0.0000E+00  0.0000E+00
     -4.593  0.7083E-16  0.1560E-03  0.1200E+00  0.1567E-03  0.0000E+00  0.0000E+00  0.0000E+00  0.0000E+00  0.0000E+00
     -4.473  0.6023E-23  0.1110E-09  0.8469E-01  0.1121E-09  0.0000E+00  0.0000E+00  0.0000E+00  0.0000E+00  0.0000E+00
     -4.354  0.2690E-24  0.5593E-25  0.4851E-01  0.1513E-24  0.0000E+00  0.0000E+00  0.0000E+00  0.0000E+00  0.0000E+00
     -4.234  0.1372E-19  0.3455E-20  0.5948E-01  0.1031E-19  0.0000E+00  0.0000E+00  0.0000E+00  0.0000E+00  0.0000E+00