    2    2    1    1
  0.3167083E+02  0.2468816E-09  0.2468816E-09  0.1200000E-08  0.5000000E-15
  1.000000000000000E-004
  CAR 
 unknown system                          
      8    155      8
 
  0.0000000E+00  0.0000000E+00  0.0000000E+00  0.1890359E-02
    1      -21.254550   1.000000
    2       -9.355606   1.000000
    3       -4.792317   1.000000
    4       -4.792258   1.000000
    5        1.457534   0.000000
    6        2.601946   0.000000
    7        3.429204   0.000000
    8        6.571878   0.000000
 
  0.4347826E-01  0.0000000E+00  0.0000000E+00  0.1134216E-01
    1      -21.209950   1.000000
    2       -9.302994   1.000000
    3       -4.977064   1.000000
    4       -4.888709   1.000000
    5        1.518163   0.000000
    6        2.662467   0.000000
    7        3.490110   0.000000
    8        6.630730   0.000000
 
  0.8695652E-01  0.0000000E+00  0.0000000E+00  0.1134216E-01
    1      -21.076263   1.000000
    2       -9.143784   1.000000
    3       -5.499519   1.000000
    4       -5.157866   1.000000
    5        1.700075   0.000000
    6        2.844414   0.000000
    7        3.672882   0.000000
    8        6.669148   0.000000
 
  0.1304348E+00  0.0000000E+00  0.0000000E+00  0.1134216E-01
    1      -20.853895   1.000000
    2       -8.879501   1.000000
    3       -6.286261   1.000000
    4       -5.546611   1.000000
    5        2.003254   0.000000
    6        3.147237   0.000000
    7        3.977522   0.000000
    8        6.612032   0.000000
 
  0.1739130E+00  0.0000000E+00  0.0000000E+00  0.1134216E-01
    1      -20.543527   1.000000
    2       -8.512444   1.000000
    3       -7.254684   1.000000
    4       -5.997330   1.000000
    5        2.427522   0.000000
    6        3.569797   0.000000
    7        4.403736   0.000000
    8        6.529872   0.000000
 
  0.2173913E+00  0.0000000E+00  0.0000000E+00  0.1134216E-01
    1      -20.146207   1.000000
    2       -8.333891   1.000000
    3       -8.045741   1.000000
    4       -6.462528   1.000000
    5        2.972473   0.000000
    6        4.108375   0.000000
    7        4.950350   0.000000
    8        6.347965   0.000000
 
  0.2608696E+00  0.0000000E+00  0.0000000E+00  0.1134216E-01
    1      -19.663416   1.000000
    2       -9.468997   1.000000
    3       -7.485580   1.000000
    4       -6.905237   1.000000
    5        3.637220   0.000000
    6        4.707862   0.000000
    7        5.251785   0.000000
    8        5.609342   0.000000
 
  0.3043478E+00  0.0000000E+00  0.0000000E+00  0.1134216E-01
    1      -19.097311   1.000000
    2      -10.620672   1.000000
    3       -7.301948   1.000000
    4       -6.840871   1.000000
    5        3.933601   0.000000
    6        4.419882   0.000000
    7        5.597665   0.000000
    8        6.002334   0.000000
 
  0.3478261E+00  0.0000000E+00  0.0000000E+00  0.1134216E-01
    1      -18.451209   1.000000
    2      -11.759288   1.000000
    3       -7.633175   1.000000
    4       -6.127137   1.000000
    5        2.743733   0.000000
    6        5.308657   0.000000
    7        5.876948   0.000000
    8        6.484918   0.000000
 
  0.3913043E+00  0.0000000E+00  0.0000000E+00  0.1134216E-01
    1      -17.731326   1.000000
    2      -12.861885   1.000000
    3       -7.889565   1.000000
    4       -5.379549   1.000000
    5        1.609726   0.000000
    6        5.705908   0.000000
    7        6.372545   0.000000
    8        7.494128   0.000000
 
  0.4347826E+00  0.0000000E+00  0.0000000E+00  0.1134216E-01
    1      -16.953801   1.000000
    2      -13.900395   1.000000
    3       -8.063453   1.000000
    4       -4.673487   1.000000
    5        0.635211   0.000000
    6        5.627375   0.000000
    7        7.493365   0.000000
    8        8.611490   0.000000
 
  0.4782609E+00  0.0000000E+00  0.0000000E+00  0.1134216E-01
    1      -16.205649   1.000000
    2      -14.780592   1.000000
    3       -8.151693   1.000000
    4       -4.187549   1.000000
    5        0.009330   0.000000
    6        5.583283   0.000000
    7        8.729351   0.000000
    8        9.816771   0.000000
 
  0.4347826E-01  0.4347826E-01  0.0000000E+00  0.1134216E-01
    1      -21.120805   1.000000
    2       -9.197031   1.000000
    3       -5.319766   1.000000
    4       -5.083033   1.000000
    5        1.639443   0.000000
    6        2.783718   0.000000
    7        3.611964   0.000000
    8        6.683190   0.000000
 
  0.8695652E-01  0.4347826E-01  0.0000000E+00  0.2268431E-01
    1      -20.942774   1.000000
    2       -8.985224   1.000000
    3       -5.949543   1.000000
    4       -5.436344   1.000000
    5        1.882036   0.000000
    6        3.026146   0.000000
    7        3.855756   0.000000
    8        6.778432   0.000000
 
  0.1304348E+00  0.4347826E-01  0.0000000E+00  0.2268431E-01
    1      -20.676414   1.000000
    2       -8.669468   1.000000
    3       -6.804307   1.000000
    4       -5.880726   1.000000
    5        2.245828   0.000000
    6        3.389000   0.000000
    7        4.221381   0.000000
    8        6.726126   0.000000
 
  0.1739130E+00  0.4347826E-01  0.0000000E+00  0.2268431E-01
    1      -20.322575   1.000000
    2       -8.252575   1.000000
    3       -7.809974   1.000000
    4       -6.357435   1.000000
    5        2.730559   0.000000
    6        3.870436   0.000000
    7        4.708363   0.000000
    8        6.641833   0.000000
 
  0.2173913E+00  0.4347826E-01  0.0000000E+00  0.2268431E-01
    1      -19.882508   1.000000
    2       -8.904214   1.000000
    3       -7.738716   1.000000
    4       -6.824224   1.000000
    5        3.335651   0.000000
    6        4.460405   0.000000
    7        5.314675   0.000000
    8        5.727015   0.000000
 
  0.2608696E+00  0.4347826E-01  0.0000000E+00  0.2268431E-01
    1      -19.358025   1.000000
    2      -10.039073   1.000000
    3       -7.251999   1.000000
    4       -7.135073   1.000000
    5        4.059976   0.000000
    6        4.478733   0.000000
    7        5.254915   0.000000
    8        6.016240   0.000000
 
  0.3043478E+00  0.4347826E-01  0.0000000E+00  0.2268431E-01
    1      -18.751799   1.000000
    2      -11.179038   1.000000
    3       -7.620897   1.000000
    4       -6.453416   1.000000
    5        3.310964   0.000000
    6        4.900465   0.000000
    7        6.063360   0.000000
    8        6.136257   0.000000
 
  0.3478261E+00  0.4347826E-01  0.0000000E+00  0.2268431E-01
    1      -18.068285   1.000000
    2      -12.296766   1.000000
    3       -7.918241   1.000000
    4       -5.716839   1.000000
    5        2.147030   0.000000
    6        5.805747   0.000000
    7        6.054885   0.000000
    8        7.013314   0.000000
 
  0.3913043E+00  0.4347826E-01  0.0000000E+00  0.2268431E-01
    1      -17.316944   1.000000
    2      -13.367915   1.000000
    3       -8.135931   1.000000
    4       -4.976036   1.000000
    5        1.080961   0.000000
    6        5.866515   0.000000
    7        6.961314   0.000000
    8        8.074383   0.000000
 
  0.4347826E+00  0.4347826E-01  0.0000000E+00  0.2268431E-01
    1      -16.530905   1.000000
    2      -14.349390   1.000000
    3       -8.268308   1.000000
    4       -4.346848   1.000000
    5        0.249213   0.000000
    6        5.802519   0.000000
    7        8.142079   0.000000
    8        9.232679   0.000000
 
  0.4782609E+00  0.4347826E-01  0.0000000E+00  0.1134216E-01
    1      -16.000595   1.000000
    2      -14.945302   1.000000
    3       -8.312923   1.000000
    4       -4.075061   1.000000
    5       -0.090770   0.000000
    6        5.780562   0.000000
    7        9.356247   0.000000
    8        9.505426   0.000000
 
  0.8695652E-01  0.8695652E-01  0.0000000E+00  0.1134216E-01
    1      -20.720756   1.000000
    2       -8.721971   1.000000
    3       -6.603958   1.000000
    4       -5.890230   1.000000
    5        2.185303   0.000000
    6        3.328671   0.000000
    7        4.160674   0.000000
    8        6.941403   0.000000
 
  0.1304348E+00  0.8695652E-01  0.0000000E+00  0.2268431E-01
    1      -20.410917   1.000000
    2       -8.356205   1.000000
    3       -7.437547   1.000000
    4       -6.418168   1.000000
    5        2.609730   0.000000
    6        3.751044   0.000000
    7        4.587529   0.000000
    8        7.088784   0.000000
 
  0.1739130E+00  0.8695652E-01  0.0000000E+00  0.2268431E-01
    1      -20.014344   1.000000
    2       -8.414009   1.000000
    3       -7.891364   1.000000
    4       -6.942702   1.000000
    5        3.154837   0.000000
    6        4.290089   0.000000
    7        5.135626   0.000000
    8        6.075228   0.000000
 
  0.2173913E+00  0.8695652E-01  0.0000000E+00  0.2268431E-01
    1      -19.532558   1.000000
    2       -9.478986   1.000000
    3       -7.423650   1.000000
    4       -7.332894   1.000000
    5        3.819945   0.000000
    6        4.828305   0.000000
    7        5.097859   0.000000
    8        5.802813   0.000000
 
  0.2608696E+00  0.8695652E-01  0.0000000E+00  0.2268431E-01
    1      -18.967866   1.000000
    2      -10.584977   1.000000
    3       -7.843171   1.000000
    4       -6.689589   1.000000
    5        3.800477   0.000000
    6        4.603627   0.000000
    7        5.751620   0.000000
    8        6.557692   0.000000
 
  0.3043478E+00  0.8695652E-01  0.0000000E+00  0.2268431E-01
    1      -18.323687   1.000000
    2      -11.693564   1.000000
    3       -8.188512   1.000000
    4       -5.977664   1.000000
    5        2.648081   0.000000
    6        5.502330   0.000000
    7        6.638042   0.000000
    8        6.639874   0.000000
 
  0.3478261E+00  0.8695652E-01  0.0000000E+00  0.2268431E-01
    1      -17.606429   1.000000
    2      -12.775608   1.000000
    3       -8.453456   1.000000
    4       -5.230225   1.000000
    5        1.545026   0.000000
    6        6.414164   0.000000
    7        6.623085   0.000000
    8        7.638586   0.000000
 
  0.3913043E+00  0.8695652E-01  0.0000000E+00  0.2268431E-01
    1      -16.832505   1.000000
    2      -13.800242   1.000000
    3       -8.632348   1.000000
    4       -4.520916   1.000000
    5        0.585786   0.000000
    6        6.406996   0.000000
    7        7.669965   0.000000
    8        8.732235   0.000000
 
  0.4347826E+00  0.8695652E-01  0.0000000E+00  0.2268431E-01
    1      -16.089187   1.000000
    2      -14.670819   1.000000
    3       -8.722491   1.000000
    4       -4.026761   1.000000
    5       -0.036344   0.000000
    6        6.364201   0.000000
    7        8.897681   0.000000
    8        9.871996   0.000000
 
  0.1304348E+00  0.1304348E+00  0.0000000E+00  0.1134216E-01
    1      -20.058349   1.000000
    2       -8.183977   1.000000
    3       -7.942338   1.000000
    4       -7.053405   1.000000
    5        3.094591   0.000000
    6        4.232247   0.000000
    7        5.075664   0.000000
    8        6.200199   0.000000
 
  0.1739130E+00  0.1304348E+00  0.0000000E+00  0.2268431E-01
    1      -19.620054   1.000000
    2       -9.059903   1.000000
    3       -7.663545   1.000000
    4       -7.432209   1.000000
    5        3.699816   0.000000
    6        4.825049   0.000000
    7        5.222065   0.000000
    8        5.685044   0.000000
 
  0.2173913E+00  0.1304348E+00  0.0000000E+00  0.2268431E-01
    1      -19.098003   1.000000
    2      -10.047522   1.000000
    3       -8.185286   1.000000
    4       -6.832556   1.000000
    5        4.148176   0.000000
    6        4.424402   0.000000
    7        5.553161   0.000000
    8        6.413711   0.000000
 
  0.2608696E+00  0.1304348E+00  0.0000000E+00  0.2268431E-01
    1      -18.495093   1.000000
    2      -11.094600   1.000000
    3       -8.608565   1.000000
    4       -6.155204   1.000000
    5        3.053384   0.000000
    6        5.266790   0.000000
    7        6.379994   0.000000
    8        7.243797   0.000000
 
  0.3043478E+00  0.1304348E+00  0.0000000E+00  0.2268431E-01
    1      -17.816113   1.000000
    2      -12.153532   1.000000
    3       -8.936470   1.000000
    4       -5.421035   1.000000
    5        1.966152   0.000000
    6        6.223158   0.000000
    7        7.312381   0.000000
    8        7.446242   0.000000
 
  0.3478261E+00  0.1304348E+00  0.0000000E+00  0.2268431E-01
    1      -17.071004   1.000000
    2      -13.186602   1.000000
    3       -9.170712   1.000000
    4       -4.676896   1.000000
    5        0.950898   0.000000
    6        7.222495   0.000000
    7        7.415945   0.000000
    8        8.331746   0.000000
 
  0.3913043E+00  0.1304348E+00  0.0000000E+00  0.2268431E-01
    1      -16.293344   1.000000
    2      -14.142711   1.000000
    3       -9.311303   1.000000
    4       -4.034011   1.000000
    5        0.140562   0.000000
    6        7.258399   0.000000
    7        8.487545   0.000000
    8        9.385174   0.000000
 
  0.4347826E+00  0.1304348E+00  0.0000000E+00  0.1134216E-01
    1      -15.771041   1.000000
    2      -14.725423   1.000000
    3       -9.358209   1.000000
    4       -3.749820   1.000000
    5       -0.201453   0.000000
    6        7.238147   0.000000
    7        9.667618   0.000000
    8        9.839239   0.000000
 
  0.1739130E+00  0.1739130E+00  0.0000000E+00  0.1134216E-01
    1      -19.141463   1.000000
    2       -9.783460   1.000000
    3       -8.388969   1.000000
    4       -6.880123   1.000000
    5        4.281076   0.000000
    6        4.364522   0.000000
    7        5.482322   0.000000
    8        6.355460   0.000000
 
  0.2173913E+00  0.1739130E+00  0.0000000E+00  0.2268431E-01
    1      -18.581124   1.000000
    2      -10.626978   1.000000
    3       -9.001053   1.000000
    4       -6.244548   1.000000
    5        3.286100   0.000000
    6        5.147657   0.000000
    7        6.244178   0.000000
    8        7.145097   0.000000
 
  0.2608696E+00  0.1739130E+00  0.0000000E+00  0.2268431E-01
    1      -17.942960   1.000000
    2      -11.572132   1.000000
    3       -9.460098   1.000000
    4       -5.539657   1.000000
    5        2.267228   0.000000
    6        6.046916   0.000000
    7        7.106174   0.000000
    8        8.044930   0.000000
 
  0.3043478E+00  0.1739130E+00  0.0000000E+00  0.2268431E-01
    1      -17.233885   1.000000
    2      -12.557975   1.000000
    3       -9.783973   1.000000
    4       -4.792221   1.000000
    5        1.268211   0.000000
    6        7.057803   0.000000
    7        8.044154   0.000000
    8        8.470706   0.000000
 
  0.3478261E+00  0.1739130E+00  0.0000000E+00  0.2268431E-01
    1      -16.471085   1.000000
    2      -13.524081   1.000000
    3       -9.992115   1.000000
    4       -4.069354   1.000000
    5        0.368542   0.000000
    6        8.148770   0.000000
    7        8.416829   0.000000
    8        8.985916   0.000000
 
  0.3913043E+00  0.1739130E+00  0.0000000E+00  0.2268431E-01
    1      -15.741331   1.000000
    2      -14.360539   1.000000
    3      -10.094573   1.000000
    4       -3.547195   1.000000
    5       -0.246134   0.000000
    6        8.326505   0.000000
    7        9.396062   0.000000
    8        9.690802   0.000000
 
  0.2173913E+00  0.2173913E+00  0.0000000E+00  0.1134216E-01
    1      -17.985384   1.000000
    2      -11.274878   1.000000
    3       -9.742368   1.000000
    4       -5.579212   1.000000
    5        2.379305   0.000000
    6        5.987522   0.000000
    7        7.034940   0.000000
    8        7.994424   0.000000
 
  0.2608696E+00  0.2173913E+00  0.0000000E+00  0.2268431E-01
    1      -17.316275   1.000000
    2      -12.048692   1.000000
    3      -10.296050   1.000000
    4       -4.853396   1.000000
    5        1.455586   0.000000
    6        6.940467   0.000000
    7        7.890006   0.000000
    8        8.955072   0.000000
 
  0.3043478E+00  0.2173913E+00  0.0000000E+00  0.2268431E-01
    1      -16.584634   1.000000
    2      -12.918341   1.000000
    3      -10.648520   1.000000
    4       -4.103538   1.000000
    5        0.557080   0.000000
    6        7.998735   0.000000
    7        8.712297   0.000000
    8        9.608366   0.000000
 
  0.3478261E+00  0.2173913E+00  0.0000000E+00  0.2268431E-01
    1      -15.824312   1.000000
    2      -13.787234   1.000000
    3      -10.841554   1.000000
    4       -3.426662   1.000000
    5       -0.212895   0.000000
    6        9.133713   0.000000
    7        9.263704   0.000000
    8        9.560167   0.000000
 
  0.3913043E+00  0.2173913E+00  0.0000000E+00  0.1134216E-01
    1      -15.312572   1.000000
    2      -14.339071   1.000000
    3      -10.903011   1.000000
    4       -3.103574   1.000000
    5       -0.566862   0.000000
    6        9.415309   0.000000
    7        9.498251   0.000000
    8       10.249506   0.000000
 
  0.2608696E+00  0.2608696E+00  0.0000000E+00  0.1134216E-01
    1      -16.623381   1.000000
    2      -12.596922   1.000000
    3      -10.989241   1.000000
    4       -4.117230   1.000000
    5        0.630205   0.000000
    6        7.940291   0.000000
    7        8.613044   0.000000
    8        9.968098   0.000000
 
  0.3043478E+00  0.2608696E+00  0.0000000E+00  0.2268431E-01
    1      -15.882332   1.000000
    2      -13.276461   1.000000
    3      -11.431092   1.000000
    4       -3.374103   1.000000
    5       -0.169263   0.000000
    6        9.012491   0.000000
    7        9.029401   0.000000
    8       10.699476   0.000000
 
  0.3478261E+00  0.2608696E+00  0.0000000E+00  0.2268431E-01
    1      -15.171191   1.000000
    2      -13.984332   1.000000
    3      -11.628280   1.000000
    4       -2.769624   1.000000
    5       -0.800321   0.000000
    6        9.080236   0.000000
    7       10.146402   0.000000
    8       10.642534   0.000000
 
  0.3043478E+00  0.3043478E+00  0.0000000E+00  0.1134216E-01
    1      -15.158573   1.000000
    2      -13.719404   1.000000
    3      -11.984899   1.000000
    4       -2.639418   1.000000
    5       -0.892153   0.000000
    6        8.949546   0.000000
    7       10.100425   0.000000
    8       11.241210   0.000000
 
  0.3478261E+00  0.3043478E+00  0.0000000E+00  0.1134216E-01
    1      -14.627248   1.000000
    2      -14.149397   1.000000
    3      -12.178180   1.000000
    4       -2.145490   1.000000
    5       -1.381020   0.000000
    6        8.888198   0.000000
    7       10.935521   0.000000
    8       11.063234   0.000000
 
  0.0000000E+00  0.0000000E+00  0.0000000E+00  0.0000000E+00
    1      -21.254550   1.000000
    2       -9.355606   1.000000
    3       -4.792317   1.000000
    4       -4.792258   1.000000
    5        1.457534   0.000000
    6        2.601946   0.000000
    7        3.429205   0.000000
    8        6.571878   0.000000
 
  0.1428571E-01  0.0000000E+00  0.0000000E+00  0.0000000E+00
    1      -21.249737   1.000000
    2       -9.350444   1.000000
    3       -4.812210   1.000000
    4       -4.802931   1.000000
    5        1.464081   0.000000
    6        2.608328   0.000000
    7        3.435780   0.000000
    8        6.577920   0.000000
 
  0.2857143E-01  0.0000000E+00  0.0000000E+00  0.0000000E+00
    1      -21.235290   1.000000
    2       -9.333152   1.000000
    3       -4.872188   1.000000
    4       -4.834199   1.000000
    5        1.483715   0.000000
    6        2.628005   0.000000
    7        3.455503   0.000000
    8        6.597137   0.000000
 
  0.4285714E-01  0.0000000E+00  0.0000000E+00  0.0000000E+00
    1      -21.211215   1.000000
    2       -9.304502   1.000000
    3       -4.971913   1.000000
    4       -4.886020   1.000000
    5        1.516443   0.000000
    6        2.660746   0.000000
    7        3.488382   0.000000
    8        6.629051   0.000000
 
  0.5714286E-01  0.0000000E+00  0.0000000E+00  0.0000000E+00
    1      -21.177520   1.000000
    2       -9.264389   1.000000
    3       -5.108026   1.000000
    4       -4.957194   1.000000
    5        1.562268   0.000000
    6        2.706583   0.000000
    7        3.534421   0.000000
    8        6.622635   0.000000
 
  0.7142857E-01  0.0000000E+00  0.0000000E+00  0.0000000E+00
    1      -21.134217   1.000000
    2       -9.212800   1.000000
    3       -5.278411   1.000000
    4       -5.045128   1.000000
    5        1.621176   0.000000
    6        2.765520   0.000000
    7        3.593607   0.000000
    8        6.643960   0.000000
 
  0.8571429E-01  0.0000000E+00  0.0000000E+00  0.0000000E+00
    1      -21.081316   1.000000
    2       -9.149799   1.000000
    3       -5.480536   1.000000
    4       -5.148246   1.000000
    5        1.693193   0.000000
    6        2.837534   0.000000
    7        3.665968   0.000000
    8        6.666860   0.000000
 
  0.1000000E+00  0.0000000E+00  0.0000000E+00  0.0000000E+00
    1      -21.018837   1.000000
    2       -9.075396   1.000000
    3       -5.711498   1.000000
    4       -5.264534   1.000000
    5        1.778308   0.000000
    6        2.922617   0.000000
    7        3.751492   0.000000
    8        6.681139   0.000000
 
  0.1142857E+00  0.0000000E+00  0.0000000E+00  0.0000000E+00
    1      -20.946802   1.000000
    2       -8.989789   1.000000
    3       -5.968355   1.000000
    4       -5.391951   1.000000
    5        1.876498   0.000000
    6        3.020707   0.000000
    7        3.850155   0.000000
    8        6.622908   0.000000
 
  0.1285714E+00  0.0000000E+00  0.0000000E+00  0.0000000E+00
    1      -20.865237   1.000000
    2       -8.892954   1.000000
    3       -6.248268   1.000000
    4       -5.528290   1.000000
    5        1.987773   0.000000
    6        3.131791   0.000000
    7        3.961967   0.000000
    8        6.613808   0.000000
 
  0.1428571E+00  0.0000000E+00  0.0000000E+00  0.0000000E+00
    1      -20.774161   1.000000
    2       -8.784921   1.000000
    3       -6.547690   1.000000
    4       -5.671248   1.000000
    5        2.112132   0.000000
    6        3.255851   0.000000
    7        4.086920   0.000000
    8        6.596151   0.000000
 
  0.1571429E+00  0.0000000E+00  0.0000000E+00  0.0000000E+00
    1      -20.673604   1.000000
    2       -8.665924   1.000000
    3       -6.864231   1.000000
    4       -5.819392   1.000000
    5        2.249565   0.000000
    6        3.392780   0.000000
    7        4.224995   0.000000
    8        6.570869   0.000000
 
  0.1714286E+00  0.0000000E+00  0.0000000E+00  0.0000000E+00
    1      -20.563620   1.000000
    2       -8.536145   1.000000
    3       -7.195855   1.000000
    4       -5.970957   1.000000
    5        2.400014   0.000000
    6        3.542461   0.000000
    7        4.376112   0.000000
    8        6.536288   0.000000
 
  0.1857143E+00  0.0000000E+00  0.0000000E+00  0.0000000E+00
    1      -20.444230   1.000000
    2       -8.395284   1.000000
    3       -7.539422   1.000000
    4       -6.124211   1.000000
    5        2.563531   0.000000
    6        3.704874   0.000000
    7        4.540300   0.000000
    8        6.498144   0.000000
 
  0.2000000E+00  0.0000000E+00  0.0000000E+00  0.0000000E+00
    1      -20.315490   1.000000
    2       -8.243990   1.000000
    3       -7.892934   1.000000
    4       -6.277431   1.000000
    5        2.740048   0.000000
    6        3.879635   0.000000
    7        4.717425   0.000000
    8        6.452532   0.000000
 
  0.2142857E+00  0.0000000E+00  0.0000000E+00  0.0000000E+00
    1      -20.177444   1.000000
    2       -8.254467   1.000000
    3       -8.082260   1.000000
    4       -6.429744   1.000000
    5        2.929558   0.000000
    6        4.066305   0.000000
    7        4.907379   0.000000
    8        6.402803   0.000000
 
  0.2285714E+00  0.0000000E+00  0.0000000E+00  0.0000000E+00
    1      -20.030144   1.000000
    2       -8.622469   1.000000
    3       -7.910403   1.000000
    4       -6.579515   1.000000
    5        3.132028   0.000000
    6        4.263709   0.000000
    7        5.109903   0.000000
    8        6.059105   0.000000
 
  0.2428571E+00  0.0000000E+00  0.0000000E+00  0.0000000E+00
    1      -19.873674   1.000000
    2       -8.995035   1.000000
    3       -7.728444   1.000000
    4       -6.726331   1.000000
    5        3.347389   0.000000
    6        4.468719   0.000000
    7        5.324411   0.000000
    8        5.689944   0.000000
 
  0.2571429E+00  0.0000000E+00  0.0000000E+00  0.0000000E+00
    1      -19.708100   1.000000
    2       -9.370612   1.000000
    3       -7.537087   1.000000
    4       -6.868895   1.000000
    5        3.575574   0.000000
    6        4.665939   0.000000
    7        5.334111   0.000000
    8        5.549388   0.000000
 
  0.2714286E+00  0.0000000E+00  0.0000000E+00  0.0000000E+00
    1      -19.533486   1.000000
    2       -9.748320   1.000000
    3       -7.336270   1.000000
    4       -7.006260   1.000000
    5        3.816593   0.000000
    6        4.723006   0.000000
    7        5.125129   0.000000
    8        5.779081   0.000000
 
  0.2857143E+00  0.0000000E+00  0.0000000E+00  0.0000000E+00
    1      -19.349939   1.000000
    2      -10.126941   1.000000
    3       -7.137975   1.000000
    4       -7.126627   1.000000
    5        4.070286   0.000000
    6        4.431652   0.000000
    7        5.272565   0.000000
    8        5.973879   0.000000
 
  0.3000000E+00  0.0000000E+00  0.0000000E+00  0.0000000E+00
    1      -19.157590   1.000000
    2      -10.505684   1.000000
    3       -7.265085   1.000000
    4       -6.908779   1.000000
    5        4.051809   0.000000
    6        4.336433   0.000000
    7        5.517262   0.000000
    8        6.010807   0.000000
 
  0.3142857E+00  0.0000000E+00  0.0000000E+00  0.0000000E+00
    1      -18.956501   1.000000
    2      -10.882694   1.000000
    3       -7.383623   1.000000
    4       -6.682272   1.000000
    5        3.661882   0.000000
    6        4.614836   0.000000
    7        5.788276   0.000000
    8        5.975346   0.000000
 
  0.3285714E+00  0.0000000E+00  0.0000000E+00  0.0000000E+00
    1      -18.746882   1.000000
    2      -11.258004   1.000000
    3       -7.495075   1.000000
    4       -6.449667   1.000000
    5        3.269179   0.000000
    6        4.904663   0.000000
    7        5.931185   0.000000
    8        6.075586   0.000000
 
  0.3428571E+00  0.0000000E+00  0.0000000E+00  0.0000000E+00
    1      -18.528940   1.000000
    2      -11.630537   1.000000
    3       -7.598929   1.000000
    4       -6.211209   1.000000
    5        2.878548   0.000000
    6        5.203661   0.000000
    7        5.889169   0.000000
    8        6.376978   0.000000
 
  0.3571429E+00  0.0000000E+00  0.0000000E+00  0.0000000E+00
    1      -18.302861   1.000000
    2      -11.999457   1.000000
    3       -7.694637   1.000000
    4       -5.968241   1.000000
    5        2.492869   0.000000
    6        5.501368   0.000000
    7        5.863015   0.000000
    8        6.691498   0.000000
 
  0.3714286E+00  0.0000000E+00  0.0000000E+00  0.0000000E+00
    1      -18.068952   1.000000
    2      -12.363822   1.000000
    3       -7.782145   1.000000
    4       -5.722151   1.000000
    5        2.115901   0.000000
    6        5.704494   0.000000
    7        5.948108   0.000000
    8        7.018752   0.000000
 
  0.3857143E+00  0.0000000E+00  0.0000000E+00  0.0000000E+00
    1      -17.827647   1.000000
    2      -12.722983   1.000000
    3       -7.861067   1.000000
    4       -5.475604   1.000000
    5        1.749361   0.000000
    6        5.714844   0.000000
    7        6.240659   0.000000
    8        7.358092   0.000000
 
  0.4000000E+00  0.0000000E+00  0.0000000E+00  0.0000000E+00
    1      -17.579537   1.000000
    2      -13.075928   1.000000
    3       -7.931051   1.000000
    4       -5.231461   1.000000
    5        1.397589   0.000000
    6        5.689458   0.000000
    7        6.585146   0.000000
    8        7.709246   0.000000
 
  0.4142857E+00  0.0000000E+00  0.0000000E+00  0.0000000E+00
    1      -17.325468   1.000000
    2      -13.421335   1.000000
    3       -7.991948   1.000000
    4       -4.993212   1.000000
    5        1.065571   0.000000
    6        5.662360   0.000000
    7        6.948317   0.000000
    8        8.071932   0.000000
 
  0.4285714E+00  0.0000000E+00  0.0000000E+00  0.0000000E+00
    1      -17.066952   1.000000
    2      -13.757626   1.000000
    3       -8.043623   1.000000
    4       -4.766524   1.000000
    5        0.759124   0.000000
    6        5.637338   0.000000
    7        7.325491   0.000000
    8        8.445787   0.000000
 
  0.4428571E+00  0.0000000E+00  0.0000000E+00  0.0000000E+00
    1      -16.806698   1.000000
    2      -14.082128   1.000000
    3       -8.086682   1.000000
    4       -4.559819   1.000000
    5        0.483227   0.000000
    6        5.615469   0.000000
    7        7.715032   0.000000
    8        8.829505   0.000000
 
  0.4571429E+00  0.0000000E+00  0.0000000E+00  0.0000000E+00
    1      -16.549741   1.000000
    2      -14.388826   1.000000
    3       -8.119906   1.000000
    4       -4.379539   1.000000
    5        0.251020   0.000000
    6        5.598969   0.000000
    7        8.116467   0.000000
    8        9.222956   0.000000
 
  0.4714286E+00  0.0000000E+00  0.0000000E+00  0.0000000E+00
    1      -16.308178   1.000000
    2      -14.666056   1.000000
    3       -8.143684   1.000000
    4       -4.238058   1.000000
    5        0.072208   0.000000
    6        5.587235   0.000000
    7        8.528765   0.000000
    8        9.623835   0.000000
 
  0.4857143E+00  0.0000000E+00  0.0000000E+00  0.0000000E+00
    1      -16.112298   1.000000
    2      -14.883318   1.000000
    3       -8.157989   1.000000
    4       -4.146976   1.000000
    5       -0.041156   0.000000
    6        5.580309   0.000000
    7        8.949845   0.000000
    8        9.838919   0.000000
 