PROCAR lm decomposed
# of k-points:  155         # of bands:   8         # of ions:   2

 k-point    1 :    0.00000000 0.00000000 0.00000000     weight = 0.00189036

band   1 # energy  -21.25455025 # occ.  2.00000000
 
ion      s     py     pz     px    dxy    dyz    dz2    dxz    dx2    tot
  1  0.322  0.000  0.000  0.000  0.000  0.000  0.000  0.000  0.000  0.322
  2  0.322  0.000  0.000  0.000  0.000  0.000  0.000  0.000  0.000  0.322
tot  0.645  0.000  0.000  0.000  0.000  0.000  0.000  0.000  0.000  0.645
 
band   2 # energy   -9.35560619 # occ.  2.00000000
 
ion      s     py     pz     px    dxy    dyz    dz2    dxz    dx2    tot
  1  0.000  0.000  0.216  0.000  0.000  0.000  0.000  0.000  0.000  0.216
  2  0.000  0.000  0.216  0.000  0.000  0.000  0.000  0.000  0.000  0.216
tot  0.000  0.000  0.431  0.000  0.000  0.000  0.000  0.000  0.000  0.431
 
band   3 # energy   -4.79231719 # occ.  2.00000000
 
ion      s     py     pz     px    dxy    dyz    dz2    dxz    dx2    tot
  1  0.000  0.412  0.000  0.000  0.000  0.000  0.000  0.000  0.000  0.412
  2  0.000  0.412  0.000  0.000  0.000  0.000  0.000  0.000  0.000  0.412
tot  0.000  0.825  0.000  0.000  0.000  0.000  0.000  0.000  0.000  0.825
 
band   4 # energy   -4.79225844 # occ.  2.00000000
 
ion      s     py     pz     px    dxy    dyz    dz2    dxz    dx2    tot
  1  0.000  0.000  0.000  0.412  0.000  0.000  0.000  0.000  0.000  0.412
  2  0.000  0.000  0.000  0.412  0.000  0.000  0.000  0.000  0.000  0.412
tot  0.000  0.000  0.000  0.825  0.000  0.000  0.000  0.000  0.000  0.825
 
band   5 # energy    1.45753437 # occ.  0.00000000
 
ion      s     py     pz     px    dxy    dyz    dz2    dxz    dx2    tot
  1  0.009  0.000  0.000  0.000  0.000  0.000  0.000  0.000  0.000  0.009
  2  0.009  0.000  0.000  0.000  0.000  0.000  0.000  0.000  0.000  0.009
tot  0.018  0.000  0.000  0.000  0.000  0.000  0.000  0.000  0.000  0.018
 
band   6 # energy    2.60194645 # occ.  0.00000000
 
ion      s     py     pz     px    dxy    dyz    dz2    dxz    dx2    tot
  1  0.000  0.000  0.018  0.000  0.000  0.000  0.000  0.000  0.000  0.018
  2  0.000  0.000  0.018  0.000  0.000  0.000  0.000  0.000  0.000  0.018
tot  0.000  0.000  0.036  0.000  0.000  0.000  0.000  0.000  0.000  0.036
 
band   7 # energy    3.42920449 # occ.  0.00000000
 
ion      s     py     pz     px    dxy    dyz    dz2    dxz    dx2    tot
  1  0.006  0.000  0.000  0.000  0.000  0.000  0.000  0.000  0.000  0.006
  2  0.006  0.000  0.000  0.000  0.000  0.000  0.000  0.000  0.000  0.006
tot  0.012  0.000  0.000  0.000  0.000  0.000  0.000  0.000  0.000  0.012
 
band   8 # energy    6.57187801 # occ.  0.00000000
 
ion      s     py     pz     px    dxy    dyz    dz2    dxz    dx2    tot
  1  0.000  0.000  0.026  0.000  0.000  0.000  0.000  0.000  0.000  0.026
  2  0.000  0.000  0.026  0.000  0.000  0.000  0.000  0.000  0.000  0.026
tot  0.000  0.000  0.053  0.000  0.000  0.000  0.000  0.000  0.000  0.053
 

 k-point    2 :    0.04347826 0.00000000 0.00000000     weight = 0.01134216

band   1 # energy  -21.20995029 # occ.  2.00000000
 
ion      s     py     pz     px    dxy    dyz    dz2    dxz    dx2    tot
  1  0.322  0.000  0.000  0.001  0.000  0.000  0.000  0.000  0.000  0.323
  2  0.322  0.000  0.000  0.001  0.000  0.000  0.000  0.000  0.000  0.323
tot  0.643  0.000  0.000  0.001  0.000  0.000  0.000  0.000  0.000  0.645
 
band   2 # energy   -9.30299355 # occ.  2.00000000
 
ion      s     py     pz     px    dxy    dyz    dz2    dxz    dx2    tot
  1  0.000  0.000  0.216  0.000  0.000  0.000  0.000  0.000  0.000  0.216
  2  0.000  0.000  0.216  0.000  0.000  0.000  0.000  0.000  0.000  0.216
tot  0.000  0.000  0.432  0.000  0.000  0.000  0.000  0.000  0.000  0.432
 
band   3 # energy   -4.97706434 # occ.  2.00000000
 
ion      s     py     pz     px    dxy    dyz    dz2    dxz    dx2    tot
  1  0.005  0.101  0.000  0.304  0.000  0.000  0.000  0.000  0.000  0.411
  2  0.005  0.101  0.000  0.304  0.000  0.000  0.000  0.000  0.000  0.411
tot  0.011  0.203  0.000  0.607  0.000  0.000  0.000  0.000  0.000  0.821
 
band   4 # energy   -4.88870927 # occ.  2.00000000
 
ion      s     py     pz     px    dxy    dyz    dz2    dxz    dx2    tot
  1  0.000  0.308  0.000  0.103  0.000  0.000  0.000  0.000  0.000  0.411
  2  0.000  0.308  0.000  0.103  0.000  0.000  0.000  0.000  0.000  0.411
tot  0.000  0.617  0.000  0.206  0.000  0.000  0.000  0.000  0.000  0.822
 
band   5 # energy    1.51816326 # occ.  0.00000000
 
ion      s     py     pz     px    dxy    dyz    dz2    dxz    dx2    tot
  1  0.009  0.000  0.000  0.000  0.000  0.000  0.000  0.000  0.000  0.009
  2  0.009  0.000  0.000  0.000  0.000  0.000  0.000  0.000  0.000  0.009
tot  0.018  0.000  0.000  0.000  0.000  0.000  0.000  0.000  0.000  0.018
 
band   6 # energy    2.66246726 # occ.  0.00000000
 
ion      s     py     pz     px    dxy    dyz    dz2    dxz    dx2    tot
  1  0.000  0.000  0.018  0.000  0.000  0.000  0.000  0.000  0.000  0.018
  2  0.000  0.000  0.018  0.000  0.000  0.000  0.000  0.000  0.000  0.018
tot  0.000  0.000  0.036  0.000  0.000  0.000  0.000  0.000  0.000  0.036
 
band   7 # energy    3.49011040 # occ.  0.00000000
 
ion      s     py     pz     px    dxy    dyz    dz2    dxz    dx2    tot
  1  0.006  0.000  0.000  0.000  0.000  0.000  0.000  0.000  0.000  0.006
  2  0.006  0.000  0.000  0.000  0.000  0.000  0.000  0.000  0.000  0.006
tot  0.012  0.000  0.000  0.000  0.000  0.000  0.000  0.000  0.000  0.012
 
band   8 # energy    6.63072981 # occ.  0.00000000
 
ion      s     py     pz     px    dxy    dyz    dz2    dxz    dx2    tot
  1  0.000  0.000  0.026  0.000  0.000  0.000  0.000  0.000  0.000  0.026
  2  0.000  0.000  0.026  0.000  0.000  0.000  0.000  0.000  0.000  0.026
tot  0.000  0.000  0.053  0.000  0.000  0.000  0.000  0.000  0.000  0.053
 

 k-point    3 :    0.08695652 0.00000000 0.00000000     weight = 0.01134216

band   1 # energy  -21.07626324 # occ.  2.00000000
 
ion      s     py     pz     px    dxy    dyz    dz2    dxz    dx2    tot
  1  0.319  0.001  0.000  0.003  0.000  0.000  0.000  0.000  0.000  0.323
  2  0.319  0.001  0.000  0.003  0.000  0.000  0.000  0.000  0.000  0.323
tot  0.639  0.002  0.000  0.006  0.000  0.000  0.000  0.000  0.000  0.646
 
band   2 # energy   -9.14378361 # occ.  2.00000000
 
ion      s     py     pz     px    dxy    dyz    dz2    dxz    dx2    tot
  1  0.000  0.000  0.216  0.000  0.000  0.000  0.000  0.000  0.000  0.216
  2  0.000  0.000  0.216  0.000  0.000  0.000  0.000  0.000  0.000  0.216
tot  0.000  0.000  0.433  0.000  0.000  0.000  0.000  0.000  0.000  0.433
 
band   3 # energy   -5.49951853 # occ.  2.00000000
 
ion      s     py     pz     px    dxy    dyz    dz2    dxz    dx2    tot
  1  0.020  0.096  0.000  0.289  0.000  0.000  0.000  0.000  0.000  0.406
  2  0.020  0.096  0.000  0.289  0.000  0.000  0.000  0.000  0.000  0.406
tot  0.040  0.193  0.000  0.579  0.000  0.000  0.000  0.000  0.000  0.811
 
band   4 # energy   -5.15786623 # occ.  2.00000000
 
ion      s     py     pz     px    dxy    dyz    dz2    dxz    dx2    tot
  1  0.000  0.306  0.000  0.102  0.000  0.000  0.000  0.000  0.000  0.408
  2  0.000  0.306  0.000  0.102  0.000  0.000  0.000  0.000  0.000  0.408
tot  0.000  0.612  0.000  0.204  0.000  0.000  0.000  0.000  0.000  0.816
 
band   5 # energy    1.70007462 # occ.  0.00000000
 
ion      s     py     pz     px    dxy    dyz    dz2    dxz    dx2    tot
  1  0.009  0.000  0.000  0.000  0.000  0.000  0.000  0.000  0.000  0.009
  2  0.009  0.000  0.000  0.000  0.000  0.000  0.000  0.000  0.000  0.009
tot  0.017  0.000  0.000  0.001  0.000  0.000  0.000  0.000  0.000  0.018
 
band   6 # energy    2.84441362 # occ.  0.00000000
 
ion      s     py     pz     px    dxy    dyz    dz2    dxz    dx2    tot
  1  0.000  0.000  0.018  0.000  0.000  0.000  0.000  0.000  0.000  0.018
  2  0.000  0.000  0.018  0.000  0.000  0.000  0.000  0.000  0.000  0.018
tot  0.000  0.000  0.036  0.000  0.000  0.000  0.000  0.000  0.000  0.036
 
band   7 # energy    3.67288224 # occ.  0.00000000
 
ion      s     py     pz     px    dxy    dyz    dz2    dxz    dx2    tot
  1  0.005  0.000  0.000  0.000  0.000  0.000  0.000  0.000  0.000  0.006
  2  0.005  0.000  0.000  0.000  0.000  0.000  0.000  0.000  0.000  0.006
tot  0.011  0.000  0.000  0.001  0.000  0.000  0.000  0.000  0.000  0.012
 
band   8 # energy    6.66914763 # occ.  0.00000000
 
ion      s     py     pz     px    dxy    dyz    dz2    dxz    dx2    tot
  1  0.014  0.062  0.000  0.192  0.000  0.000  0.000  0.000  0.000  0.268
  2  0.014  0.063  0.000  0.191  0.000  0.000  0.000  0.000  0.000  0.268
tot  0.028  0.125  0.000  0.383  0.000  0.000  0.000  0.000  0.000  0.535
 

 k-point    4 :    0.13043478 0.00000000 0.00000000     weight = 0.01134216

band   1 # energy  -20.85389515 # occ.  2.00000000
 
ion      s     py     pz     px    dxy    dyz    dz2    dxz    dx2    tot
  1  0.316  0.002  0.000  0.006  0.000  0.000  0.000  0.000  0.000  0.324
  2  0.316  0.002  0.000  0.006  0.000  0.000  0.000  0.000  0.000  0.324
tot  0.632  0.004  0.000  0.013  0.000  0.000  0.000  0.000  0.000  0.649
 
band   2 # energy   -8.87950056 # occ.  2.00000000
 
ion      s     py     pz     px    dxy    dyz    dz2    dxz    dx2    tot
  1  0.000  0.000  0.217  0.000  0.000  0.000  0.000  0.000  0.000  0.217
  2  0.000  0.000  0.217  0.000  0.000  0.000  0.000  0.000  0.000  0.217
tot  0.000  0.000  0.435  0.000  0.000  0.000  0.000  0.000  0.000  0.435
 
band   3 # energy   -6.28626092 # occ.  2.00000000
 
ion      s     py     pz     px    dxy    dyz    dz2    dxz    dx2    tot
  1  0.040  0.090  0.000  0.269  0.000  0.000  0.000  0.000  0.000  0.399
  2  0.040  0.090  0.000  0.269  0.000  0.000  0.000  0.000  0.000  0.399
tot  0.080  0.180  0.000  0.539  0.000  0.000  0.000  0.000  0.000  0.798
 
band   4 # energy   -5.54661136 # occ.  2.00000000
 
ion      s     py     pz     px    dxy    dyz    dz2    dxz    dx2    tot
  1  0.000  0.303  0.000  0.101  0.000  0.000  0.000  0.000  0.000  0.404
  2  0.000  0.303  0.000  0.101  0.000  0.000  0.000  0.000  0.000  0.404
tot  0.000  0.606  0.000  0.202  0.000  0.000  0.000  0.000  0.000  0.809
 
band   5 # energy    2.00325359 # occ.  0.00000000
 
ion      s     py     pz     px    dxy    dyz    dz2    dxz    dx2    tot
  1  0.008  0.000  0.000  0.001  0.000  0.000  0.000  0.000  0.000  0.009
  2  0.008  0.000  0.000  0.001  0.000  0.000  0.000  0.000  0.000  0.009
tot  0.017  0.000  0.000  0.001  0.000  0.000  0.000  0.000  0.000  0.019
 
band   6 # energy    3.14723672 # occ.  0.00000000
 
ion      s     py     pz     px    dxy    dyz    dz2    dxz    dx2    tot
  1  0.000  0.000  0.018  0.000  0.000  0.000  0.000  0.000  0.000  0.018
  2  0.000  0.000  0.018  0.000  0.000  0.000  0.000  0.000  0.000  0.018
tot  0.000  0.000  0.036  0.000  0.000  0.000  0.000  0.000  0.000  0.036
 
band   7 # energy    3.97752187 # occ.  0.00000000
 
ion      s     py     pz     px    dxy    dyz    dz2    dxz    dx2    tot
  1  0.005  0.000  0.000  0.001  0.000  0.000  0.000  0.000  0.000  0.006
  2  0.005  0.000  0.000  0.001  0.000  0.000  0.000  0.000  0.000  0.006
tot  0.010  0.001  0.000  0.002  0.000  0.000  0.000  0.000  0.000  0.012
 
band   8 # energy    6.61203162 # occ.  0.00000000
 
ion      s     py     pz     px    dxy    dyz    dz2    dxz    dx2    tot
  1  0.036  0.053  0.000  0.159  0.000  0.000  0.000  0.000  0.000  0.248
  2  0.036  0.053  0.000  0.159  0.000  0.000  0.000  0.000  0.000  0.248
tot  0.072  0.106  0.000  0.318  0.000  0.000  0.000  0.000  0.000  0.497
 

 k-point    5 :    0.17391304 0.00000000 0.00000000     weight = 0.01134216

band   1 # energy  -20.54352746 # occ.  2.00000000
 
ion      s     py     pz     px    dxy    dyz    dz2    dxz    dx2    tot
  1  0.311  0.004  0.000  0.011  0.000  0.000  0.000  0.000  0.000  0.326
  2  0.311  0.004  0.000  0.011  0.000  0.000  0.000  0.000  0.000  0.326
tot  0.622  0.007  0.000  0.022  0.000  0.000  0.000  0.000  0.000  0.652
 
band   2 # energy   -8.51244435 # occ.  2.00000000
 
ion      s     py     pz     px    dxy    dyz    dz2    dxz    dx2    tot
  1  0.000  0.000  0.219  0.000  0.000  0.000  0.000  0.000  0.000  0.219
  2  0.000  0.000  0.219  0.000  0.000  0.000  0.000  0.000  0.000  0.219
tot  0.000  0.000  0.438  0.000  0.000  0.000  0.000  0.000  0.000  0.438
 
band   3 # energy   -7.25468403 # occ.  2.00000000
 
ion      s     py     pz     px    dxy    dyz    dz2    dxz    dx2    tot
  1  0.062  0.083  0.000  0.248  0.000  0.000  0.000  0.000  0.000  0.392
  2  0.062  0.083  0.000  0.248  0.000  0.000  0.000  0.000  0.000  0.392
tot  0.123  0.165  0.000  0.495  0.000  0.000  0.000  0.000  0.000  0.783
 
band   4 # energy   -5.99732973 # occ.  2.00000000
 
ion      s     py     pz     px    dxy    dyz    dz2    dxz    dx2    tot
  1  0.000  0.301  0.000  0.100  0.000  0.000  0.000  0.000  0.000  0.401
  2  0.000  0.301  0.000  0.100  0.000  0.000  0.000  0.000  0.000  0.401
tot  0.000  0.601  0.000  0.200  0.000  0.000  0.000  0.000  0.000  0.802
 
band   5 # energy    2.42752231 # occ.  0.00000000
 
ion      s     py     pz     px    dxy    dyz    dz2    dxz    dx2    tot
  1  0.008  0.000  0.000  0.001  0.000  0.000  0.000  0.000  0.000  0.010
  2  0.008  0.000  0.000  0.001  0.000  0.000  0.000  0.000  0.000  0.010
tot  0.016  0.001  0.000  0.003  0.000  0.000  0.000  0.000  0.000  0.019
 
band   6 # energy    3.56979683 # occ.  0.00000000
 
ion      s     py     pz     px    dxy    dyz    dz2    dxz    dx2    tot
  1  0.000  0.000  0.019  0.000  0.000  0.000  0.000  0.000  0.000  0.019
  2  0.000  0.000  0.019  0.000  0.000  0.000  0.000  0.000  0.000  0.019
tot  0.000  0.000  0.037  0.000  0.000  0.000  0.000  0.000  0.000  0.037
 
band   7 # energy    4.40373625 # occ.  0.00000000
 
ion      s     py     pz     px    dxy    dyz    dz2    dxz    dx2    tot
  1  0.004  0.000  0.000  0.001  0.000  0.000  0.000  0.000  0.000  0.006
  2  0.004  0.000  0.000  0.001  0.000  0.000  0.000  0.000  0.000  0.006
tot  0.009  0.001  0.000  0.003  0.000  0.000  0.000  0.000  0.000  0.013
 
band   8 # energy    6.52987157 # occ.  0.00000000
 
ion      s     py     pz     px    dxy    dyz    dz2    dxz    dx2    tot
  1  0.067  0.044  0.000  0.132  0.000  0.000  0.000  0.000  0.000  0.242
  2  0.067  0.044  0.000  0.132  0.000  0.000  0.000  0.000  0.000  0.242
tot  0.134  0.088  0.000  0.263  0.000  0.000  0.000  0.000  0.000  0.485
 

 k-point    6 :    0.21739130 0.00000000 0.00000000     weight = 0.01134216

band   1 # energy  -20.14620691 # occ.  2.00000000
 
ion      s     py     pz     px    dxy    dyz    dz2    dxz    dx2    tot
  1  0.305  0.006  0.000  0.017  0.000  0.000  0.000  0.000  0.000  0.328
  2  0.305  0.006  0.000  0.017  0.000  0.000  0.000  0.000  0.000  0.328
tot  0.610  0.012  0.000  0.035  0.000  0.000  0.000  0.000  0.000  0.656
 
band   2 # energy   -8.33389056 # occ.  2.00000000
 
ion      s     py     pz     px    dxy    dyz    dz2    dxz    dx2    tot
  1  0.084  0.075  0.000  0.225  0.000  0.000  0.000  0.000  0.000  0.384
  2  0.084  0.075  0.000  0.225  0.000  0.000  0.000  0.000  0.000  0.384
tot  0.167  0.150  0.000  0.451  0.000  0.000  0.000  0.000  0.000  0.768
 
band   3 # energy   -8.04574070 # occ.  2.00000000
 
ion      s     py     pz     px    dxy    dyz    dz2    dxz    dx2    tot
  1  0.000  0.000  0.221  0.000  0.000  0.000  0.000  0.000  0.000  0.221
  2  0.000  0.000  0.221  0.000  0.000  0.000  0.000  0.000  0.000  0.221
tot  0.000  0.000  0.442  0.000  0.000  0.000  0.000  0.000  0.000  0.442
 
band   4 # energy   -6.46252758 # occ.  2.00000000
 
ion      s     py     pz     px    dxy    dyz    dz2    dxz    dx2    tot
  1  0.000  0.298  0.000  0.099  0.000  0.000  0.000  0.000  0.000  0.398
  2  0.000  0.298  0.000  0.099  0.000  0.000  0.000  0.000  0.000  0.398
tot  0.000  0.597  0.000  0.199  0.000  0.000  0.000  0.000  0.000  0.796
 
band   5 # energy    2.97247317 # occ.  0.00000000
 
ion      s     py     pz     px    dxy    dyz    dz2    dxz    dx2    tot
  1  0.007  0.001  0.000  0.002  0.000  0.000  0.000  0.000  0.000  0.010
  2  0.007  0.001  0.000  0.002  0.000  0.000  0.000  0.000  0.000  0.010
tot  0.015  0.001  0.000  0.004  0.000  0.000  0.000  0.000  0.000  0.020
 
band   6 # energy    4.10837519 # occ.  0.00000000
 
ion      s     py     pz     px    dxy    dyz    dz2    dxz    dx2    tot
  1  0.000  0.000  0.019  0.000  0.000  0.000  0.000  0.000  0.000  0.019
  2  0.000  0.000  0.019  0.000  0.000  0.000  0.000  0.000  0.000  0.019
tot  0.000  0.000  0.039  0.000  0.000  0.000  0.000  0.000  0.000  0.039
 
band   7 # energy    4.95034996 # occ.  0.00000000
 
ion      s     py     pz     px    dxy    dyz    dz2    dxz    dx2    tot
  1  0.004  0.001  0.000  0.003  0.000  0.000  0.000  0.000  0.000  0.007
  2  0.004  0.001  0.000  0.003  0.000  0.000  0.000  0.000  0.000  0.007
tot  0.007  0.002  0.000  0.005  0.000  0.000  0.000  0.000  0.000  0.015
 
band   8 # energy    6.34796475 # occ.  0.00000000
 
ion      s     py     pz     px    dxy    dyz    dz2    dxz    dx2    tot
  1  0.000  0.000  0.320  0.000  0.000  0.000  0.000  0.000  0.000  0.320
  2  0.000  0.000  0.320  0.000  0.000  0.000  0.000  0.000  0.000  0.320
tot  0.000  0.000  0.640  0.000  0.000  0.000  0.000  0.000  0.000  0.640
 

 k-point    7 :    0.26086957 0.00000000 0.00000000     weight = 0.01134216

band   1 # energy  -19.66341561 # occ.  2.00000000
 
ion      s     py     pz     px    dxy    dyz    dz2    dxz    dx2    tot
  1  0.297  0.008  0.000  0.025  0.000  0.000  0.000  0.000  0.000  0.331
  2  0.297  0.008  0.000  0.025  0.000  0.000  0.000  0.000  0.000  0.331
tot  0.595  0.017  0.000  0.050  0.000  0.000  0.000  0.000  0.000  0.661
 
band   2 # energy   -9.46899713 # occ.  2.00000000
 
ion      s     py     pz     px    dxy    dyz    dz2    dxz    dx2    tot
  1  0.105  0.068  0.000  0.204  0.000  0.000  0.000  0.000  0.000  0.377
  2  0.105  0.068  0.000  0.204  0.000  0.000  0.000  0.000  0.000  0.377
tot  0.209  0.136  0.000  0.408  0.000  0.000  0.000  0.000  0.000  0.754
 
band   3 # energy   -7.48557992 # occ.  2.00000000
 
ion      s     py     pz     px    dxy    dyz    dz2    dxz    dx2    tot
  1  0.000  0.000  0.223  0.000  0.000  0.000  0.000  0.000  0.000  0.223
  2  0.000  0.000  0.223  0.000  0.000  0.000  0.000  0.000  0.000  0.223
tot  0.000  0.000  0.447  0.000  0.000  0.000  0.000  0.000  0.000  0.447
 
band   4 # energy   -6.90523727 # occ.  2.00000000
 
ion      s     py     pz     px    dxy    dyz    dz2    dxz    dx2    tot
  1  0.000  0.297  0.000  0.099  0.000  0.000  0.000  0.000  0.000  0.396
  2  0.000  0.297  0.000  0.099  0.000  0.000  0.000  0.000  0.000  0.396
tot  0.000  0.594  0.000  0.198  0.000  0.000  0.000  0.000  0.000  0.792
 
band   5 # energy    3.63721958 # occ.  0.00000000
 
ion      s     py     pz     px    dxy    dyz    dz2    dxz    dx2    tot
  1  0.007  0.001  0.000  0.003  0.000  0.000  0.000  0.000  0.000  0.011
  2  0.007  0.001  0.000  0.003  0.000  0.000  0.000  0.000  0.000  0.011
tot  0.013  0.002  0.000  0.006  0.000  0.000  0.000  0.000  0.000  0.021
 
band   6 # energy    4.70786174 # occ.  0.00000000
 
ion      s     py     pz     px    dxy    dyz    dz2    dxz    dx2    tot
  1  0.000  0.000  0.054  0.000  0.000  0.000  0.000  0.000  0.000  0.054
  2  0.000  0.000  0.054  0.000  0.000  0.000  0.000  0.000  0.000  0.054
tot  0.000  0.000  0.108  0.000  0.000  0.000  0.000  0.000  0.000  0.108
 
band   7 # energy    5.25178490 # occ.  0.00000000
 
ion      s     py     pz     px    dxy    dyz    dz2    dxz    dx2    tot
  1  0.000  0.000  0.268  0.000  0.000  0.000  0.000  0.000  0.000  0.268
  2  0.000  0.000  0.268  0.000  0.000  0.000  0.000  0.000  0.000  0.268
tot  0.000  0.000  0.537  0.000  0.000  0.000  0.000  0.000  0.000  0.537
 
band   8 # energy    5.60934225 # occ.  0.00000000
 
ion      s     py     pz     px    dxy    dyz    dz2    dxz    dx2    tot
  1  0.004  0.002  0.000  0.007  0.000  0.000  0.000  0.000  0.000  0.014
  2  0.004  0.002  0.000  0.007  0.000  0.000  0.000  0.000  0.000  0.014
tot  0.008  0.005  0.000  0.015  0.000  0.000  0.000  0.000  0.000  0.027
 

 k-point    8 :    0.30434783 0.00000000 0.00000000     weight = 0.01134216

band   1 # energy  -19.09731123 # occ.  2.00000000
 
ion      s     py     pz     px    dxy    dyz    dz2    dxz    dx2    tot
  1  0.289  0.011  0.000  0.033  0.000  0.000  0.000  0.000  0.000  0.334
  2  0.289  0.011  0.000  0.033  0.000  0.000  0.000  0.000  0.000  0.334
tot  0.578  0.022  0.000  0.067  0.000  0.000  0.000  0.000  0.000  0.667
 
band   2 # energy  -10.62067205 # occ.  2.00000000
 
ion      s     py     pz     px    dxy    dyz    dz2    dxz    dx2    tot
  1  0.125  0.061  0.000  0.184  0.000  0.000  0.000  0.000  0.000  0.370
  2  0.125  0.061  0.000  0.184  0.000  0.000  0.000  0.000  0.000  0.370
tot  0.249  0.123  0.000  0.368  0.000  0.000  0.000  0.000  0.000  0.740
 
band   3 # energy   -7.30194816 # occ.  2.00000000
 
ion      s     py     pz     px    dxy    dyz    dz2    dxz    dx2    tot
  1  0.000  0.296  0.000  0.099  0.000  0.000  0.000  0.000  0.000  0.394
  2  0.000  0.296  0.000  0.099  0.000  0.000  0.000  0.000  0.000  0.394
tot  0.000  0.591  0.000  0.197  0.000  0.000  0.000  0.000  0.000  0.789
 
band   4 # energy   -6.84087142 # occ.  2.00000000
 
ion      s     py     pz     px    dxy    dyz    dz2    dxz    dx2    tot
  1  0.000  0.000  0.227  0.000  0.000  0.000  0.000  0.000  0.000  0.227
  2  0.000  0.000  0.227  0.000  0.000  0.000  0.000  0.000  0.000  0.227
tot  0.000  0.000  0.454  0.000  0.000  0.000  0.000  0.000  0.000  0.454
 
band   5 # energy    3.93360117 # occ.  0.00000000
 
ion      s     py     pz     px    dxy    dyz    dz2    dxz    dx2    tot
  1  0.000  0.000  0.278  0.000  0.000  0.000  0.000  0.000  0.000  0.278
  2  0.000  0.000  0.278  0.000  0.000  0.000  0.000  0.000  0.000  0.278
tot  0.000  0.000  0.556  0.000  0.000  0.000  0.000  0.000  0.000  0.556
 
band   6 # energy    4.41988241 # occ.  0.00000000
 
ion      s     py     pz     px    dxy    dyz    dz2    dxz    dx2    tot
  1  0.006  0.002  0.000  0.005  0.000  0.000  0.000  0.000  0.000  0.012
  2  0.006  0.002  0.000  0.005  0.000  0.000  0.000  0.000  0.000  0.012
tot  0.011  0.003  0.000  0.009  0.000  0.000  0.000  0.000  0.000  0.024
 
band   7 # energy    5.59766528 # occ.  0.00000000
 
ion      s     py     pz     px    dxy    dyz    dz2    dxz    dx2    tot
  1  0.000  0.000  0.027  0.000  0.000  0.000  0.000  0.000  0.000  0.027
  2  0.000  0.000  0.027  0.000  0.000  0.000  0.000  0.000  0.000  0.027
tot  0.000  0.000  0.055  0.000  0.000  0.000  0.000  0.000  0.000  0.055
 
band   8 # energy    6.00233416 # occ.  0.00000000
 
ion      s     py     pz     px    dxy    dyz    dz2    dxz    dx2    tot
  1  0.131  0.021  0.000  0.063  0.000  0.000  0.000  0.000  0.000  0.215
  2  0.131  0.021  0.000  0.063  0.000  0.000  0.000  0.000  0.000  0.215
tot  0.262  0.042  0.000  0.127  0.000  0.000  0.000  0.000  0.000  0.431
 

 k-point    9 :    0.34782609 0.00000000 0.00000000     weight = 0.01134216

band   1 # energy  -18.45120900 # occ.  2.00000000
 
ion      s     py     pz     px    dxy    dyz    dz2    dxz    dx2    tot
  1  0.280  0.014  0.000  0.042  0.000  0.000  0.000  0.000  0.000  0.337
  2  0.280  0.014  0.000  0.042  0.000  0.000  0.000  0.000  0.000  0.337
tot  0.561  0.028  0.000  0.085  0.000  0.000  0.000  0.000  0.000  0.674
 
band   2 # energy  -11.75928825 # occ.  2.00000000
 
ion      s     py     pz     px    dxy    dyz    dz2    dxz    dx2    tot
  1  0.143  0.055  0.000  0.166  0.000  0.000  0.000  0.000  0.000  0.364
  2  0.143  0.055  0.000  0.166  0.000  0.000  0.000  0.000  0.000  0.364
tot  0.286  0.110  0.000  0.331  0.000  0.000  0.000  0.000  0.000  0.727
 
band   3 # energy   -7.63317527 # occ.  2.00000000
 
ion      s     py     pz     px    dxy    dyz    dz2    dxz    dx2    tot
  1  0.000  0.295  0.000  0.098  0.000  0.000  0.000  0.000  0.000  0.393
  2  0.000  0.295  0.000  0.098  0.000  0.000  0.000  0.000  0.000  0.393
tot  0.000  0.590  0.000  0.197  0.000  0.000  0.000  0.000  0.000  0.787
 
band   4 # energy   -6.12713709 # occ.  2.00000000
 
ion      s     py     pz     px    dxy    dyz    dz2    dxz    dx2    tot
  1  0.000  0.000  0.232  0.000  0.000  0.000  0.000  0.000  0.000  0.232
  2  0.000  0.000  0.232  0.000  0.000  0.000  0.000  0.000  0.000  0.232
tot  0.000  0.000  0.464  0.000  0.000  0.000  0.000  0.000  0.000  0.464
 
band   5 # energy    2.74373312 # occ.  0.00000000
 
ion      s     py     pz     px    dxy    dyz    dz2    dxz    dx2    tot
  1  0.000  0.000  0.266  0.000  0.000  0.000  0.000  0.000  0.000  0.266
  2  0.000  0.000  0.266  0.000  0.000  0.000  0.000  0.000  0.000  0.266
tot  0.000  0.000  0.532  0.000  0.000  0.000  0.000  0.000  0.000  0.532
 
band   6 # energy    5.30865691 # occ.  0.00000000
 
ion      s     py     pz     px    dxy    dyz    dz2    dxz    dx2    tot
  1  0.007  0.004  0.000  0.011  0.000  0.000  0.000  0.000  0.000  0.021
  2  0.007  0.004  0.000  0.011  0.000  0.000  0.000  0.000  0.000  0.021
tot  0.013  0.007  0.000  0.022  0.000  0.000  0.000  0.000  0.000  0.043
 
band   7 # energy    5.87694800 # occ.  0.00000000
 
ion      s     py     pz     px    dxy    dyz    dz2    dxz    dx2    tot
  1  0.159  0.015  0.000  0.044  0.000  0.000  0.000  0.000  0.000  0.218
  2  0.159  0.015  0.000  0.044  0.000  0.000  0.000  0.000  0.000  0.218
tot  0.318  0.029  0.000  0.088  0.000  0.000  0.000  0.000  0.000  0.436
 
band   8 # energy    6.48491818 # occ.  0.00000000
 
ion      s     py     pz     px    dxy    dyz    dz2    dxz    dx2    tot
  1  0.000  0.000  0.024  0.000  0.000  0.000  0.000  0.000  0.000  0.024
  2  0.000  0.000  0.024  0.000  0.000  0.000  0.000  0.000  0.000  0.024
tot  0.000  0.000  0.048  0.000  0.000  0.000  0.000  0.000  0.000  0.048
 

 k-point   10 :    0.39130435 0.00000000 0.00000000     weight = 0.01134216

band   1 # energy  -17.73132643 # occ.  2.00000000
 
ion      s     py     pz     px    dxy    dyz    dz2    dxz    dx2    tot
  1  0.272  0.017  0.000  0.052  0.000  0.000  0.000  0.000  0.000  0.341
  2  0.272  0.017  0.000  0.052  0.000  0.000  0.000  0.000  0.000  0.341
tot  0.545  0.035  0.000  0.104  0.000  0.000  0.000  0.000  0.000  0.683
 
band   2 # energy  -12.86188523 # occ.  2.00000000
 
ion      s     py     pz     px    dxy    dyz    dz2    dxz    dx2    tot
  1  0.158  0.050  0.000  0.149  0.000  0.000  0.000  0.000  0.000  0.357
  2  0.158  0.050  0.000  0.149  0.000  0.000  0.000  0.000  0.000  0.357
tot  0.316  0.100  0.000  0.299  0.000  0.000  0.000  0.000  0.000  0.714
 
band   3 # energy   -7.88956473 # occ.  2.00000000
 
ion      s     py     pz     px    dxy    dyz    dz2    dxz    dx2    tot
  1  0.000  0.295  0.000  0.098  0.000  0.000  0.000  0.000  0.000  0.393
  2  0.000  0.295  0.000  0.098  0.000  0.000  0.000  0.000  0.000  0.393
tot  0.000  0.589  0.000  0.196  0.000  0.000  0.000  0.000  0.000  0.786
 
band   4 # energy   -5.37954855 # occ.  2.00000000
 
ion      s     py     pz     px    dxy    dyz    dz2    dxz    dx2    tot
  1  0.000  0.000  0.238  0.000  0.000  0.000  0.000  0.000  0.000  0.238
  2  0.000  0.000  0.238  0.000  0.000  0.000  0.000  0.000  0.000  0.238
tot  0.000  0.000  0.476  0.000  0.000  0.000  0.000  0.000  0.000  0.476
 
band   5 # energy    1.60972615 # occ.  0.00000000
 
ion      s     py     pz     px    dxy    dyz    dz2    dxz    dx2    tot
  1  0.000  0.000  0.251  0.000  0.000  0.000  0.000  0.000  0.000  0.251
  2  0.000  0.000  0.251  0.000  0.000  0.000  0.000  0.000  0.000  0.251
tot  0.000  0.000  0.503  0.000  0.000  0.000  0.000  0.000  0.000  0.503
 
band   6 # energy    5.70590751 # occ.  0.00000000
 
ion      s     py     pz     px    dxy    dyz    dz2    dxz    dx2    tot
  1  0.163  0.015  0.000  0.044  0.000  0.000  0.000  0.000  0.000  0.222
  2  0.163  0.015  0.000  0.044  0.000  0.000  0.000  0.000  0.000  0.222
tot  0.327  0.029  0.000  0.088  0.000  0.000  0.000  0.000  0.000  0.444
 
band   7 # energy    6.37254470 # occ.  0.00000000
 
ion      s     py     pz     px    dxy    dyz    dz2    dxz    dx2    tot
  1  0.015  0.000  0.000  0.001  0.000  0.000  0.000  0.000  0.000  0.017
  2  0.015  0.000  0.000  0.001  0.000  0.000  0.000  0.000  0.000  0.017
tot  0.030  0.001  0.000  0.003  0.000  0.000  0.000  0.000  0.000  0.034
 
band   8 # energy    7.49412754 # occ.  0.00000000
 
ion      s     py     pz     px    dxy    dyz    dz2    dxz    dx2    tot
  1  0.000  0.000  0.025  0.000  0.000  0.000  0.000  0.000  0.000  0.025
  2  0.000  0.000  0.025  0.000  0.000  0.000  0.000  0.000  0.000  0.025
tot  0.000  0.000  0.050  0.000  0.000  0.000  0.000  0.000  0.000  0.050
 

 k-point   11 :    0.43478261 0.00000000 0.00000000     weight = 0.01134216

band   1 # energy  -16.95380078 # occ.  2.00000000
 
ion      s     py     pz     px    dxy    dyz    dz2    dxz    dx2    tot
  1  0.268  0.020  0.000  0.059  0.000  0.000  0.000  0.000  0.000  0.347
  2  0.268  0.020  0.000  0.059  0.000  0.000  0.000  0.000  0.000  0.347
tot  0.537  0.039  0.000  0.118  0.000  0.000  0.000  0.000  0.000  0.694
 
band   2 # energy  -13.90039454 # occ.  2.00000000
 
ion      s     py     pz     px    dxy    dyz    dz2    dxz    dx2    tot
  1  0.167  0.046  0.000  0.137  0.000  0.000  0.000  0.000  0.000  0.350
  2  0.167  0.046  0.000  0.137  0.000  0.000  0.000  0.000  0.000  0.350
tot  0.334  0.092  0.000  0.275  0.000  0.000  0.000  0.000  0.000  0.700
 
band   3 # energy   -8.06345337 # occ.  2.00000000
 
ion      s     py     pz     px    dxy    dyz    dz2    dxz    dx2    tot
  1  0.000  0.294  0.000  0.098  0.000  0.000  0.000  0.000  0.000  0.393