<?xml version="1.0" encoding="ISO-8859-1"?>
<modeling>
 <generator>
  <i name="program" type="string">vasp </i>
  <i name="version" type="string">5.4.1  </i>
  <i name="subversion" type="string">24Jun15 (build Jul 23 2016 23:05:46) complex                          serial </i>
  <i name="platform" type="string">IFC91_ompi </i>
  <i name="date" type="string">2018 11 29 </i>
  <i name="time" type="string">17:36:34 </i>
 </generator>
 <incar>
  <i type="int" name="ISTART">     1</i>
  <i type="string" name="PREC">a</i>
  <i type="int" name="ISPIN">     1</i>
  <i type="int" name="NELM">    60</i>
  <i name="EDIFF">      0.00000010</i>
  <i type="logical" name="LREAL"> F  </i>
  <i type="int" name="ISMEAR">     0</i>
  <i name="SIGMA">      0.05000000</i>
  <i type="logical" name="LWAVE"> T  </i>
  <i type="logical" name="LCHARG"> F  </i>
  <i type="logical" name="LORBIT"> F  </i>
  <v type="int" name="KPOINT_BSE">    -1     0     0     0</v>
  <i type="int" name="NELM">    60</i>
 </incar>
 <kpoints>
  <varray name="kpointlist" >
   <v>       0.00000000       0.00000000       0.00000000 </v>
   <v>       0.04347826       0.00000000       0.00000000 </v>
   <v>       0.08695652       0.00000000       0.00000000 </v>
   <v>       0.13043478       0.00000000       0.00000000 </v>
   <v>       0.17391304       0.00000000       0.00000000 </v>
   <v>       0.21739130       0.00000000       0.00000000 </v>
   <v>       0.26086957       0.00000000       0.00000000 </v>
   <v>       0.30434783       0.00000000       0.00000000 </v>
   <v>       0.34782609       0.00000000       0.00000000 </v>
   <v>       0.39130435       0.00000000       0.00000000 </v>
   <v>       0.43478261       0.00000000       0.00000000 </v>
   <v>       0.47826087       0.00000000       0.00000000 </v>
   <v>       0.04347826       0.04347826       0.00000000 </v>
   <v>       0.08695652       0.04347826       0.00000000 </v>
   <v>       0.13043478       0.04347826       0.00000000 </v>
   <v>       0.17391304       0.04347826       0.00000000 </v>
   <v>       0.21739130       0.04347826       0.00000000 </v>
   <v>       0.26086957       0.04347826       0.00000000 </v>
   <v>       0.30434783       0.04347826       0.00000000 </v>
   <v>       0.34782609       0.04347826       0.00000000 </v>
   <v>       0.39130435       0.04347826       0.00000000 </v>
   <v>       0.43478261       0.04347826       0.00000000 </v>
   <v>       0.47826087       0.04347826       0.00000000 </v>
   <v>       0.08695652       0.08695652       0.00000000 </v>
   <v>       0.13043478       0.08695652       0.00000000 </v>
   <v>       0.17391304       0.08695652       0.00000000 </v>
   <v>       0.21739130       0.08695652       0.00000000 </v>
   <v>       0.26086957       0.08695652       0.00000000 </v>
   <v>       0.30434783       0.08695652       0.00000000 </v>
   <v>       0.34782609       0.08695652       0.00000000 </v>
   <v>       0.39130435       0.08695652       0.00000000 </v>
   <v>       0.43478261       0.08695652       0.00000000 </v>
   <v>       0.13043478       0.13043478       0.00000000 </v>
   <v>       0.17391304       0.13043478       0.00000000 </v>
   <v>       0.21739130       0.13043478       0.00000000 </v>
   <v>       0.26086957       0.13043478       0.00000000 </v>
   <v>       0.30434783       0.13043478       0.00000000 </v>
   <v>       0.34782609       0.13043478       0.00000000 </v>
   <v>       0.39130435       0.13043478       0.00000000 </v>
   <v>       0.43478261       0.13043478       0.00000000 </v>
   <v>       0.17391304       0.17391304       0.00000000 </v>
   <v>       0.21739130       0.17391304       0.00000000 </v>
   <v>       0.26086957       0.17391304       0.00000000 </v>
   <v>       0.30434783       0.17391304       0.00000000 </v>
   <v>       0.34782609       0.17391304       0.00000000 </v>
   <v>       0.39130435       0.17391304       0.00000000 </v>
   <v>       0.21739130       0.21739130       0.00000000 </v>
   <v>       0.26086957       0.21739130       0.00000000 </v>
   <v>       0.30434783       0.21739130       0.00000000 </v>
   <v>       0.34782609       0.21739130       0.00000000 </v>
   <v>       0.39130435       0.21739130       0.00000000 </v>
   <v>       0.26086957       0.26086957       0.00000000 </v>
   <v>       0.30434783       0.26086957       0.00000000 </v>
   <v>       0.34782609       0.26086957       0.00000000 </v>
   <v>       0.30434783       0.30434783       0.00000000 </v>
   <v>       0.34782609       0.30434783       0.00000000 </v>
   <v>       0.00000000       0.00000000       0.00000000 </v>
   <v>       0.01428571       0.00000000       0.00000000 </v>
   <v>       0.02857143       0.00000000       0.00000000 </v>
   <v>       0.04285714       0.00000000       0.00000000 </v>
   <v>       0.05714286       0.00000000       0.00000000 </v>
   <v>       0.07142857       0.00000000       0.00000000 </v>
   <v>       0.08571429       0.00000000       0.00000000 </v>
   <v>       0.10000000       0.00000000       0.00000000 </v>
   <v>       0.11428571       0.00000000       0.00000000 </v>
   <v>       0.12857143       0.00000000       0.00000000 </v>
   <v>       0.14285714       0.00000000       0.00000000 </v>
   <v>       0.15714286       0.00000000       0.00000000 </v>
   <v>       0.17142857       0.00000000       0.00000000 </v>
   <v>       0.18571429       0.00000000       0.00000000 </v>
   <v>       0.20000000       0.00000000       0.00000000 </v>
   <v>       0.21428571       0.00000000       0.00000000 </v>
   <v>       0.22857143       0.00000000       0.00000000 </v>
   <v>       0.24285714       0.00000000       0.00000000 </v>
   <v>       0.25714286       0.00000000       0.00000000 </v>
   <v>       0.27142857       0.00000000       0.00000000 </v>
   <v>       0.28571429       0.00000000       0.00000000 </v>
   <v>       0.30000000       0.00000000       0.00000000 </v>
   <v>       0.31428571       0.00000000       0.00000000 </v>
   <v>       0.32857143       0.00000000       0.00000000 </v>
   <v>       0.34285714       0.00000000       0.00000000 </v>
   <v>       0.35714286       0.00000000       0.00000000 </v>
   <v>       0.37142857       0.00000000       0.00000000 </v>
   <v>       0.38571429       0.00000000       0.00000000 </v>
   <v>       0.40000000       0.00000000       0.00000000 </v>
   <v>       0.41428571       0.00000000       0.00000000 </v>
   <v>       0.42857143       0.00000000       0.00000000 </v>
   <v>       0.44285714       0.00000000       0.00000000 </v>
   <v>       0.45714286       0.00000000       0.00000000 </v>
   <v>       0.47142857       0.00000000       0.00000000 </v>
   <v>       0.48571429       0.00000000       0.00000000 </v>
   <v>       0.50000000       0.00000000       0.00000000 </v>
   <v>       0.50000000       0.00000000       0.00000000 </v>
   <v>       0.49166667       0.01666667       0.00000000 </v>
   <v>       0.48333333       0.03333333       0.00000000 </v>
   <v>       0.47500000       0.05000000       0.00000000 </v>
   <v>       0.46666667       0.06666667       0.00000000 </v>
   <v>       0.45833333       0.08333333       0.00000000 </v>
   <v>       0.45000000       0.10000000       0.00000000 </v>
   <v>       0.44166667       0.11666667       0.00000000 </v>
   <v>       0.43333333       0.13333333       0.00000000 </v>
   <v>       0.42500000       0.15000000       0.00000000 </v>
   <v>       0.41666667       0.16666667       0.00000000 </v>
   <v>       0.40833333       0.18333333       0.00000000 </v>
   <v>       0.40000000       0.20000000       0.00000000 </v>
   <v>       0.39166667       0.21666667       0.00000000 </v>
   <v>       0.38333333       0.23333333       0.00000000 </v>
   <v>       0.37500000       0.25000000       0.00000000 </v>
   <v>       0.36666667       0.26666667       0.00000000 </v>
   <v>       0.35833333       0.28333333       0.00000000 </v>
   <v>       0.35000000       0.30000000       0.00000000 </v>
   <v>       0.34166667       0.31666667       0.00000000 </v>
   <v>       0.33333333       0.33333333       0.00000000 </v>
   <v>       0.33333333       0.33333333       0.00000000 </v>
   <v>       0.32520325       0.32520325       0.00000000 </v>
   <v>       0.31707317       0.31707317       0.00000000 </v>
   <v>       0.30894309       0.30894309       0.00000000 </v>
   <v>       0.30081301       0.30081301       0.00000000 </v>
   <v>       0.29268293       0.29268293       0.00000000 </v>
   <v>       0.28455285       0.28455285       0.00000000 </v>
   <v>       0.27642276       0.27642276       0.00000000 </v>
   <v>       0.26829268       0.26829268       0.00000000 </v>
   <v>       0.26016260       0.26016260       0.00000000 </v>
   <v>       0.25203252       0.25203252       0.00000000 </v>
   <v>       0.24390244       0.24390244       0.00000000 </v>
   <v>       0.23577236       0.23577236       0.00000000 </v>
   <v>       0.22764228       0.22764228       0.00000000 </v>
   <v>       0.21951220       0.21951220       0.00000000 </v>
   <v>       0.21138211       0.21138211       0.00000000 </v>
   <v>       0.20325203       0.20325203       0.00000000 </v>
   <v>       0.19512195       0.19512195       0.00000000 </v>
   <v>       0.18699187       0.18699187       0.00000000 </v>
   <v>       0.17886179       0.17886179       0.00000000 </v>
   <v>       0.17073171       0.17073171       0.00000000 </v>
   <v>       0.16260163       0.16260163       0.00000000 </v>
   <v>       0.15447154       0.15447154       0.00000000 </v>
   <v>       0.14634146       0.14634146       0.00000000 </v>
   <v>       0.13821138       0.13821138       0.00000000 </v>
   <v>       0.13008130       0.13008130       0.00000000 </v>
   <v>       0.12195122       0.12195122       0.00000000 </v>
   <v>       0.11382114       0.11382114       0.00000000 </v>
   <v>       0.10569106       0.10569106       0.00000000 </v>
   <v>       0.09756098       0.09756098       0.00000000 </v>
   <v>       0.08943089       0.08943089       0.00000000 </v>
   <v>       0.08130081       0.08130081       0.00000000 </v>
   <v>       0.07317073       0.07317073       0.00000000 </v>
   <v>       0.06504065       0.06504065       0.00000000 </v>
   <v>       0.05691057       0.05691057       0.00000000 </v>
   <v>       0.04878049       0.04878049       0.00000000 </v>
   <v>       0.04065041       0.04065041       0.00000000 </v>
   <v>       0.03252033       0.03252033       0.00000000 </v>
   <v>       0.02439024       0.02439024       0.00000000 </v>
   <v>       0.01626016       0.01626016       0.00000000 </v>
   <v>       0.00813008       0.00813008       0.00000000 </v>
   <v>       0.00000000       0.00000000       0.00000000 </v>
  </varray>
  <varray name="weights" >
   <v>       0.00189036 </v>
   <v>       0.01134216 </v>
   <v>       0.01134216 </v>
   <v>       0.01134216 </v>
   <v>       0.01134216 </v>
   <v>       0.01134216 </v>
   <v>       0.01134216 </v>
   <v>       0.01134216 </v>
   <v>       0.01134216 </v>
   <v>       0.01134216 </v>
   <v>       0.01134216 </v>
   <v>       0.01134216 </v>
   <v>       0.01134216 </v>
   <v>       0.02268431 </v>
   <v>       0.02268431 </v>
   <v>       0.02268431 </v>
   <v>       0.02268431 </v>
   <v>       0.02268431 </v>
   <v>       0.02268431 </v>
   <v>       0.02268431 </v>
   <v>       0.02268431 </v>
   <v>       0.02268431 </v>
   <v>       0.01134216 </v>
   <v>       0.01134216 </v>
   <v>       0.02268431 </v>
   <v>       0.02268431 </v>
   <v>       0.02268431 </v>
   <v>       0.02268431 </v>
   <v>       0.02268431 </v>
   <v>       0.02268431 </v>
   <v>       0.02268431 </v>
   <v>       0.02268431 </v>
   <v>       0.01134216 </v>
   <v>       0.02268431 </v>
   <v>       0.02268431 </v>
   <v>       0.02268431 </v>
   <v>       0.02268431 </v>
   <v>       0.02268431 </v>
   <v>       0.02268431 </v>
   <v>       0.01134216 </v>
   <v>       0.01134216 </v>
   <v>       0.02268431 </v>
   <v>       0.02268431 </v>
   <v>       0.02268431 </v>
   <v>       0.02268431 </v>
   <v>       0.02268431 </v>
   <v>       0.01134216 </v>
   <v>       0.02268431 </v>
   <v>       0.02268431 </v>
   <v>       0.02268431 </v>
   <v>       0.01134216 </v>
   <v>       0.01134216 </v>
   <v>       0.02268431 </v>
   <v>       0.02268431 </v>
   <v>       0.01134216 </v>
   <v>       0.01134216 </v>
   <v>       0.00000000 </v>
   <v>       0.00000000 </v>
   <v>       0.00000000 </v>
   <v>       0.00000000 </v>
   <v>       0.00000000 </v>
   <v>       0.00000000 </v>
   <v>       0.00000000 </v>
   <v>       0.00000000 </v>
   <v>       0.00000000 </v>
   <v>       0.00000000 </v>
   <v>       0.00000000 </v>
   <v>       0.00000000 </v>
   <v>       0.00000000 </v>
   <v>       0.00000000 </v>
   <v>       0.00000000 </v>
   <v>       0.00000000 </v>
   <v>       0.00000000 </v>
   <v>       0.00000000 </v>
   <v>       0.00000000 </v>
   <v>       0.00000000 </v>
   <v>       0.00000000 </v>
   <v>       0.00000000 </v>
   <v>       0.00000000 </v>
   <v>       0.00000000 </v>
   <v>       0.00000000 </v>
   <v>       0.00000000 </v>
   <v>       0.00000000 </v>
   <v>       0.00000000 </v>
   <v>       0.00000000 </v>
   <v>       0.00000000 </v>
   <v>       0.00000000 </v>
   <v>       0.00000000 </v>
   <v>       0.00000000 </v>
   <v>       0.00000000 </v>
   <v>       0.00000000 </v>
   <v>       0.00000000 </v>
   <v>       0.00000000 </v>
   <v>       0.00000000 </v>
   <v>       0.00000000 </v>
   <v>       0.00000000 </v>
   <v>       0.00000000 </v>
   <v>       0.00000000 </v>
   <v>       0.00000000 </v>
   <v>       0.00000000 </v>
   <v>       0.00000000 </v>
   <v>       0.00000000 </v>
   <v>       0.00000000 </v>
   <v>       0.00000000 </v>
   <v>       0.00000000 </v>
   <v>       0.00000000 </v>
   <v>       0.00000000 </v>
   <v>       0.00000000 </v>
   <v>       0.00000000 </v>
   <v>       0.00000000 </v>
   <v>       0.00000000 </v>
   <v>       0.00000000 </v>
   <v>       0.00000000 </v>
   <v>       0.00000000 </v>
   <v>       0.00000000 </v>
   <v>       0.00000000 </v>
   <v>       0.00000000 </v>
   <v>       0.00000000 </v>
   <v>       0.00000000 </v>
   <v>       0.00000000 </v>
   <v>       0.00000000 </v>
   <v>       0.00000000 </v>
   <v>       0.00000000 </v>
   <v>       0.00000000 </v>
   <v>       0.00000000 </v>
   <v>       0.00000000 </v>
   <v>       0.00000000 </v>
   <v>       0.00000000 </v>
   <v>       0.00000000 </v>
   <v>       0.00000000 </v>
   <v>       0.00000000 </v>
   <v>       0.00000000 </v>
   <v>       0.00000000 </v>
   <v>       0.00000000 </v>
   <v>       0.00000000 </v>
   <v>       0.00000000 </v>
   <v>       0.00000000 </v>
   <v>       0.00000000 </v>
   <v>       0.00000000 </v>
   <v>       0.00000000 </v>
   <v>       0.00000000 </v>
   <v>       0.00000000 </v>
   <v>       0.00000000 </v>
   <v>       0.00000000 </v>
   <v>       0.00000000 </v>
   <v>       0.00000000 </v>
   <v>       0.00000000 </v>
   <v>       0.00000000 </v>
   <v>       0.00000000 </v>
   <v>       0.00000000 </v>
   <v>       0.00000000 </v>
   <v>       0.00000000 </v>
   <v>       0.00000000 </v>
   <v>       0.00000000 </v>
   <v>       0.00000000 </v>
  </varray>
 </kpoints>
 <parameters>
  <separator name="general" >
   <i type="string" name="SYSTEM">unknown system</i>
   <i type="logical" name="LCOMPAT"> F  </i>
  </separator>
  <separator name="electronic" >
   <i type="string" name="PREC">a</i>
   <i name="ENMAX">    400.00000000</i>
   <i name="ENAUG">    644.87300000</i>
   <i name="EDIFF">      0.00000010</i>
   <i type="int" name="IALGO">    38</i>
   <i type="int" name="IWAVPR">     0</i>
   <i type="int" name="NBANDS">     8</i>
   <i name="NELECT">      8.00000000</i>
   <i type="int" name="TURBO">     0</i>
   <i type="int" name="IRESTART">     0</i>
   <i type="int" name="NREBOOT">     0</i>
   <i type="int" name="NMIN">     0</i>
   <i name="EREF">      0.00000000</i>
   <separator name="electronic smearing" >
    <i type="int" name="ISMEAR">     0</i>
    <i name="SIGMA">      0.05000000</i>
    <i name="KSPACING">      0.50000000</i>
    <i type="logical" name="KGAMMA"> T  </i>
   </separator>
   <separator name="electronic projectors" >
    <i type="logical" name="LREAL"> F  </i>
    <v name="ROPT">      0.00000000</v>
    <i type="int" name="LMAXPAW">  -100</i>
    <i type="int" name="LMAXMIX">     2</i>
    <i type="logical" name="NLSPLINE"> F  </i>
   </separator>
   <separator name="electronic startup" >
    <i type="int" name="ISTART">     0</i>
    <i type="int" name="ICHARG">     2</i>
    <i type="int" name="INIWAV">     1</i>
   </separator>
   <separator name="electronic spin" >
    <i type="int" name="ISPIN">     1</i>
    <i type="logical" name="LNONCOLLINEAR"> F  </i>
    <v name="MAGMOM">      1.00000000      1.00000000</v>
    <i name="NUPDOWN">     -1.00000000</i>
    <i type="logical" name="LSORBIT"> F  </i>
    <v name="SAXIS">      0.00000000      0.00000000      1.00000000</v>
    <i type="logical" name="LSPIRAL"> F  </i>
    <v name="QSPIRAL">      0.00000000      0.00000000      0.00000000</v>
    <i type="logical" name="LZEROZ"> F  </i>
   </separator>
   <separator name="electronic exchange-correlation" >
    <i type="logical" name="LASPH"> F  </i>
    <i type="logical" name="LMETAGGA"> F  </i>
   </separator>
   <separator name="electronic convergence" >
    <i type="int" name="NELM">    60</i>
    <i type="int" name="NELMDL">     0</i>
    <i type="int" name="NELMIN">     2</i>
    <i name="ENINI">    400.00000000</i>
    <separator name="electronic convergence detail" >
     <i type="logical" name="LDIAG"> T  </i>
     <i type="logical" name="LSUBROT"> F  </i>
     <i name="WEIMIN">      0.00000000</i>
     <i name="EBREAK">      0.00000000</i>
     <i name="DEPER">      0.30000000</i>
     <i type="int" name="NRMM">     4</i>
     <i name="TIME">      0.40000000</i>
    </separator>
   </separator>
   <separator name="electronic mixer" >
    <i name="AMIX">      0.40000000</i>
    <i name="BMIX">      1.00000000</i>
    <i name="AMIN">      0.10000000</i>
    <i name="AMIX_MAG">      1.60000000</i>
    <i name="BMIX_MAG">      1.00000000</i>
    <separator name="electronic mixer details" >
     <i type="int" name="IMIX">     4</i>
     <i type="logical" name="MIXFIRST"> F  </i>
     <i type="int" name="MAXMIX">   -45</i>
     <i name="WC">    100.00000000</i>
     <i type="int" name="INIMIX">     1</i>
     <i type="int" name="MIXPRE">     1</i>
     <i type="int" name="MREMOVE">     5</i>
    </separator>
   </separator>
   <separator name="electronic dipolcorrection" >
    <i type="logical" name="LDIPOL"> F  </i>
    <i type="logical" name="LMONO"> F  </i>
    <i type="int" name="IDIPOL">     0</i>
    <i name="EPSILON">      1.00000000</i>
    <v name="DIPOL">   -100.00000000   -100.00000000   -100.00000000</v>
    <i name="EFIELD">      0.00000000</i>
   </separator>
  </separator>
  <separator name="grids" >
   <i type="int" name="NGX">    16</i>
   <i type="int" name="NGY">    16</i>
   <i type="int" name="NGZ">    80</i>
   <i type="int" name="NGXF">    32</i>
   <i type="int" name="NGYF">    32</i>
   <i type="int" name="NGZF">   160</i>
   <i type="logical" name="ADDGRID"> F  </i>
  </separator>
  <separator name="ionic" >
   <i type="int" name="NSW">     0</i>
   <i type="int" name="IBRION">    -1</i>
   <i type="int" name="ISIF">     2</i>
   <i name="PSTRESS">      0.00000000</i>
   <i name="EDIFFG">      0.00000100</i>
   <i type="int" name="NFREE">     0</i>
   <i name="POTIM">      0.50000000</i>
   <i name="SMASS">     -3.00000000</i>
   <i name="SCALEE">      1.00000000</i>
  </separator>
  <separator name="ionic md" >
   <i name="TEBEG">      0.00010000</i>
   <i name="TEEND">      0.00010000</i>
   <i type="int" name="NBLOCK">     1</i>
   <i type="int" name="KBLOCK">     1</i>
   <i type="int" name="NPACO">   256</i>
   <i name="APACO">     16.00000000</i>
  </separator>
  <separator name="symmetry" >
   <i type="int" name="ISYM">     2</i>
   <i name="SYMPREC">      0.00001000</i>
  </separator>
  <separator name="dos" >
   <i type="logical" name="LORBIT"> F  </i>
   <v name="RWIGS">     -1.00000000</v>
   <i type="int" name="NEDOS">   301</i>
   <i name="EMIN">     10.00000000</i>
   <i name="EMAX">    -10.00000000</i>
   <i name="EFERMI">      0.00000000</i>
  </separator>
  <separator name="writing" >
   <i type="int" name="NWRITE">     2</i>
   <i type="logical" name="LWAVE"> T  </i>
   <i type="logical" name="LCHARG"> F  </i>
   <i type="logical" name="LPARD"> F  </i>
   <i type="logical" name="LVTOT"> F  </i>
   <i type="logical" name="LVHAR"> F  </i>
   <i type="logical" name="LELF"> F  </i>
   <i type="logical" name="LOPTICS"> F  </i>
   <v name="STM">      0.00000000      0.00000000      0.00000000      0.00000000      0.00000000      0.00000000      0.00000000</v>
  </separator>
  <separator name="performance" >
   <i type="int" name="NPAR">     1</i>
   <i type="int" name="NSIM">     4</i>
   <i type="int" name="NBLK">    -1</i>
   <i type="logical" name="LPLANE"> T  </i>
   <i type="logical" name="LSCALAPACK"> F  </i>
   <i type="logical" name="LSCAAWARE"> F  </i>
   <i type="logical" name="LSCALU"> F  </i>
   <i type="logical" name="LASYNC"> F  </i>
   <i type="logical" name="LORBITALREAL"> F  </i>
  </separator>
  <separator name="miscellaneous" >
   <i type="int" name="IDIOT">     3</i>
   <i type="logical" name="LMUSIC"> F  </i>
   <v name="POMASS">     12.01100000</v>
   <v name="DARWINR">      0.00000000</v>
   <v name="DARWINV">      1.00000000</v>
   <i type="logical" name="LCORR"> T  </i>
  </separator>
  <i type="logical" name="GGA_COMPAT"> T  </i>
  <i type="logical" name="LBERRY"> F  </i>
  <i type="int" name="ICORELEVEL">     0</i>
  <i type="logical" name="LDAU"> F  </i>
  <i type="int" name="I_CONSTRAINED_M">     0</i>
  <separator name="electronic exchange-correlation" >
   <i type="string" name="GGA">--</i>
   <i type="int" name="VOSKOWN">     0</i>
   <i type="logical" name="LHFCALC"> F  </i>
   <i type="string" name="PRECFOCK"></i>
   <i type="logical" name="LSYMGRAD"> F  </i>
   <i type="logical" name="LHFONE"> F  </i>
   <i type="logical" name="LRHFCALC"> F  </i>
   <i type="logical" name="LTHOMAS"> F  </i>
   <i type="logical" name="LMODELHF"> F  </i>
   <i name="ENCUT4O">     -1.00000000</i>
   <i type="int" name="EXXOEP">     0</i>
   <i type="int" name="FOURORBIT">     0</i>
   <i name="AEXX">      0.00000000</i>
   <i name="HFALPHA">      0.00000000</i>
   <i name="MCALPHA">      0.00000000</i>
   <i name="ALDAX">      1.00000000</i>
   <i name="AGGAX">      1.00000000</i>
   <i name="ALDAC">      1.00000000</i>
   <i name="AGGAC">      1.00000000</i>
   <i type="int" name="NKREDX">     1</i>
   <i type="int" name="NKREDY">     1</i>
   <i type="int" name="NKREDZ">     1</i>
   <i type="logical" name="SHIFTRED"> F  </i>
   <i type="logical" name="ODDONLY"> F  </i>
   <i type="logical" name="EVENONLY"> F  </i>
   <i type="int" name="LMAXFOCK">     0</i>
   <i type="int" name="NMAXFOCKAE">     0</i>
   <i type="logical" name="LFOCKAEDFT"> F  </i>
   <i name="HFSCREEN">      0.00000000</i>
   <i name="HFSCREENC">      0.00000000</i>
   <i type="int" name="NBANDSGWLOW">     0</i>
  </separator>
  <separator name="vdW DFT" >
   <i type="logical" name="LUSE_VDW"> F  </i>
   <i name="Zab_VDW">     -0.84910000</i>
   <i name="PARAM1">      0.12340000</i>
   <i name="PARAM2">      1.00000000</i>
   <i name="PARAM3">      0.00000000</i>
  </separator>
  <separator name="model GW" >
   <i type="int" name="MODEL_GW">     0</i>
   <i name="MODEL_EPS0">     19.00249781</i>
   <i name="MODEL_ALPHA">      1.00000000</i>
  </separator>
  <separator name="linear response parameters" >
   <i type="logical" name="LEPSILON"> F  </i>
   <i type="logical" name="LRPA"> F  </i>
   <i type="logical" name="LNABLA"> F  </i>
   <i type="logical" name="LVEL"> F  </i>
   <i type="int" name="KINTER">     0</i>
   <i name="CSHIFT">      0.10000000</i>
   <i name="OMEGAMAX">     -1.00000000</i>
   <i name="DEG_THRESHOLD">      0.00200000</i>
  </separator>
  <separator name="orbital magnetization" >
   <i type="logical" name="NUCIND"> F  </i>
   <v name="MAGPOS">      0.00000000      0.00000000      0.00000000</v>
   <i type="logical" name="LNICSALL"> T  </i>
   <i type="logical" name="ORBITALMAG"> F  </i>
   <i type="logical" name="LMAGBLOCH"> F  </i>
   <i type="logical" name="LCHIMAG"> F  </i>
   <i type="logical" name="LGAUGE"> T  </i>
   <i type="int" name="MAGATOM">     0</i>
   <v name="MAGDIPOL">      0.00000000      0.00000000      0.00000000</v>
   <v name="AVECCONST">      0.00000000      0.00000000      0.00000000</v>
  </separator>
  <separator name="response functions" >
   <i type="logical" name="LADDER"> F  </i>
   <i type="logical" name="LFXC"> F  </i>
   <i type="logical" name="LHARTREE"> T  </i>
   <i type="int" name="IBSE">     0</i>
   <v type="int" name="KPOINT">    -1     0     0     0</v>
   <i type="logical" name="LTCTE"> F  </i>
   <i type="logical" name="LTETE"> F  </i>
   <i type="logical" name="LTRIPLET"> F  </i>
   <i type="logical" name="LFXCEPS"> F  </i>
   <i type="logical" name="LFXHEG"> F  </i>
   <i type="int" name="NATURALO">     0</i>
   <i type="logical" name="L2ORDER"> F  </i>
   <i type="logical" name="LUSEW"> F  </i>
   <i name="ENCUTGW">     -2.00000000</i>
   <i name="ENCUTGWSOFT">     -2.00000000</i>
   <i name="ENCUTLF">     -1.00000000</i>
   <i type="int" name="LMAXMP2">    -1</i>
   <i name="SCISSOR">      0.00000000</i>
   <i type="int" name="NOMEGA">     0</i>
   <i type="int" name="NOMEGAR">     0</i>
   <i type="int" name="NBANDSGW">    -1</i>
   <i type="int" name="NBANDSO">    -1</i>
   <i type="int" name="NBANDSV">    -1</i>
   <i type="int" name="NELM">    60</i>
   <i type="int" name="NELMHF">     1</i>
   <i type="int" name="DIM">     3</i>
   <i type="int" name="ANTIRES">     0</i>
   <i name="OMEGAMAX">    -30.00000000</i>
   <i name="OMEGAMIN">    -30.00000000</i>
   <i name="OMEGATL">   -200.00000000</i>
   <i type="int" name="OMEGAGRID">     0</i>
   <i name="CSHIFT">     -0.10000000</i>
   <i type="logical" name="SELFENERGY"> F  </i>
   <i type="logical" name="LSPECTRAL"> F  </i>
   <i type="logical" name="LSPECTRALGW"> F  </i>
   <i type="logical" name="LSINGLES"> F  </i>
   <i type="logical" name="LFERMIGW"> F  </i>
   <i type="logical" name="ODDONLYGW"> F  </i>
   <i type="logical" name="EVENONLYGW"> F  </i>
   <i type="int" name="NKREDLFX">     1</i>
   <i type="int" name="NKREDLFY">     1</i>
   <i type="int" name="NKREDLFZ">     1</i>
   <i type="int" name="MAXMEM">  1800</i>
   <i type="int" name="TELESCOPE">     0</i>
   <i type="int" name="TAUPAR">     1</i>
   <i type="int" name="OMEGAPAR">    -1</i>
   <i name="LAMBDA">      1.00000000</i>
  </separator>
  <separator name="External order field" >
   <i name="OFIELD_KAPPA">      0.00000000</i>
   <v name="OFIELD_K">      0.00000000      0.00000000      0.00000000</v>
   <i name="OFIELD_Q6_NEAR">      0.00000000</i>
   <i name="OFIELD_Q6_FAR">      0.00000000</i>
   <i name="OFIELD_A">      0.00000000</i>
  </separator>
 </parameters>
 <atominfo>
  <atoms>       2 </atoms>
  <types>       1 </types>
  <array name="atoms" >
   <dimension dim="1">ion</dimension>
   <field type="string">element</field>
   <field type="int">atomtype</field>
   <set>
    <rc><c>C </c><c>   1</c></rc>
    <rc><c>C </c><c>   1</c></rc>
   </set>
  </array>
  <array name="atomtypes" >
   <dimension dim="1">type</dimension>
   <field type="int">atomspertype</field>
   <field type="string">element</field>
   <field>mass</field>
   <field>valence</field>
   <field type="string">pseudopotential</field>
   <set>
    <rc><c>   2</c><c>C </c><c>     12.01100000</c><c>      4.00000000</c><c>  PAW_PBE C 08Apr2002                   </c></rc>
   </set>
  </array>
 </atominfo>
 <structure name="initialpos" >
  <crystal>
   <varray name="basis" >
    <v>       1.23440832      -2.13805737       0.00000000 </v>
    <v>       1.23440832       2.13805737       0.00000000 </v>
    <v>       0.00000000       0.00000000      12.00000000 </v>
   </varray>
   <i name="volume">     63.34165937 </i>
   <varray name="rec_basis" >
    <v>       0.40505236      -0.23385715       0.00000000 </v>
    <v>       0.40505236       0.23385715       0.00000000 </v>
    <v>       0.00000000       0.00000000       0.08333333 </v>
   </varray>
  </crystal>
  <varray name="positions" >
   <v>       0.00000000       0.00000000       0.50000000 </v>
   <v>       0.33333300       0.66666700       0.50000000 </v>
  </varray>
 </structure>
 <calculation>
  <scstep>
   <time name="dav">   16.70    7.97</time>
   <time name="total">   16.97    8.14</time>
   <energy>
    <i name="alphaZ">      5.18753167 </i>
    <i name="ewald">    559.87070669 </i>
    <i name="hartreedc">   -785.05991289 </i>
    <i name="XCdc">     26.34444786 </i>
    <i name="pawpsdc">    217.04409276 </i>
    <i name="pawaedc">   -218.18290438 </i>
    <i name="eentropy">     -0.00051409 </i>
    <i name="bandstr">    -65.92164090 </i>
    <i name="atom">    294.25444774 </i>
    <i name="e_fr_energy">     33.53625446 </i>
    <i name="e_wo_entrp">     33.53676855 </i>
    <i name="e_0_energy">     33.53651151 </i>
   </energy>
  </scstep>
  <scstep>
   <time name="dav">   12.98    3.57</time>
   <time name="total">   13.00    3.57</time>
   <energy>
    <i name="e_fr_energy">    -17.62604532 </i>
    <i name="e_wo_entrp">    -17.62604532 </i>
    <i name="e_0_energy">    -17.62604532 </i>
   </energy>
  </scstep>
  <scstep>
   <time name="dav">   17.05    5.87</time>
   <time name="total">   17.06    5.87</time>
   <energy>
    <i name="e_fr_energy">    -19.70200206 </i>
    <i name="e_wo_entrp">    -19.70200206 </i>
    <i name="e_0_energy">    -19.70200206 </i>
   </energy>
  </scstep>
  <scstep>
   <time name="dav">   16.99    5.19</time>
   <time name="total">   17.00    5.20</time>
   <energy>
    <i name="e_fr_energy">    -19.71398274 </i>
    <i name="e_wo_entrp">    -19.71398274 </i>
    <i name="e_0_energy">    -19.71398274 </i>
   </energy>
  </scstep>
  <scstep>
   <time name="dav">   14.73    4.27</time>
   <time name="total">   15.07    4.36</time>
   <energy>
    <i name="e_fr_energy">    -19.71401417 </i>
    <i name="e_wo_entrp">    -19.71401417 </i>
    <i name="e_0_energy">    -19.71401417 </i>
   </energy>
  </scstep>
  <scstep>
   <time name="dav">   16.60    5.05</time>
   <time name="total">   17.12    5.22</time>
   <energy>
    <i name="e_fr_energy">    -18.82279437 </i>
    <i name="e_wo_entrp">    -18.82279437 </i>
    <i name="e_0_energy">    -18.82279437 </i>
   </energy>
  </scstep>
  <scstep>
   <time name="dav">   16.21    4.97</time>
   <time name="total">   16.80    5.15</time>
   <energy>
    <i name="e_fr_energy">    -18.47639410 </i>
    <i name="e_wo_entrp">    -18.47639410 </i>
    <i name="e_0_energy">    -18.47639410 </i>
   </energy>
  </scstep>
  <scstep>
   <time name="dav">   13.70    3.93</time>
   <time name="total">   14.25    4.12</time>
   <energy>
    <i name="e_fr_energy">    -18.46801392 </i>
    <i name="e_wo_entrp">    -18.46801392 </i>
    <i name="e_0_energy">    -18.46801392 </i>
   </energy>
  </scstep>
  <scstep>
   <time name="dav">   13.86    3.89</time>
   <time name="total">   14.38    4.05</time>
   <energy>
    <i name="e_fr_energy">    -18.46621933 </i>
    <i name="e_wo_entrp">    -18.46621933 </i>
    <i name="e_0_energy">    -18.46621933 </i>
   </energy>
  </scstep>
  <scstep>
   <time name="dav">   12.99    3.78</time>
   <time name="total">   13.52    3.93</time>
   <energy>
    <i name="e_fr_energy">    -18.46206949 </i>
    <i name="e_wo_entrp">    -18.46206949 </i>
    <i name="e_0_energy">    -18.46206949 </i>
   </energy>
  </scstep>
  <scstep>
   <time name="dav">   11.94    3.26</time>
   <time name="total">   12.51    3.52</time>
   <energy>
    <i name="e_fr_energy">    -18.46310664 </i>
    <i name="e_wo_entrp">    -18.46310664 </i>
    <i name="e_0_energy">    -18.46310664 </i>
   </energy>
  </scstep>
  <scstep>
   <time name="dav">   12.07    3.37</time>
   <time name="total">   12.58    3.51</time>
   <energy>
    <i name="e_fr_energy">    -18.46387674 </i>
    <i name="e_wo_entrp">    -18.46387674 </i>
    <i name="e_0_energy">    -18.46387674 </i>
   </energy>
  </scstep>
  <scstep>
   <time name="dav">   12.94    3.79</time>
   <time name="total">   13.46    3.96</time>
   <energy>
    <i name="e_fr_energy">    -18.46491400 </i>
    <i name="e_wo_entrp">    -18.46491400 </i>
    <i name="e_0_energy">    -18.46491400 </i>
   </energy>
  </scstep>
  <scstep>
   <time name="dav">   13.29    3.91</time>
   <time name="total">   13.78    4.05</time>
   <energy>
    <i name="e_fr_energy">    -18.46492175 </i>
    <i name="e_wo_entrp">    -18.46492175 </i>
    <i name="e_0_energy">    -18.46492175 </i>
   </energy>
  </scstep>
  <scstep>
   <time name="dav">   10.47    2.83</time>
   <time name="total">   11.01    2.99</time>
   <energy>
    <i name="e_fr_energy">    -18.46496249 </i>
    <i name="e_wo_entrp">    -18.46496249 </i>
    <i name="e_0_energy">    -18.46496249 </i>
   </energy>
  </scstep>
  <scstep>
   <time name="dav">   13.19    3.65</time>
   <time name="total">   13.70    3.79</time>
   <energy>
    <i name="e_fr_energy">    -18.46496338 </i>
    <i name="e_wo_entrp">    -18.46496338 </i>
    <i name="e_0_energy">    -18.46496338 </i>
   </energy>
  </scstep>
  <scstep>
   <time name="dav">   10.20    2.77</time>
   <time name="total">   10.74    2.92</time>
   <energy>
    <i name="e_fr_energy">    -18.46496472 </i>
    <i name="e_wo_entrp">    -18.46496472 </i>
    <i name="e_0_energy">    -18.46496472 </i>
   </energy>
  </scstep>
  <scstep>
   <time name="dav">   17.75    5.32</time>
   <time name="total">   17.98    5.39</time>
   <energy>
    <i name="alphaZ">      5.18753167 </i>
    <i name="ewald">    559.87070669 </i>
    <i name="hartreedc">   -816.83327100 </i>
    <i name="XCdc">     27.52191826 </i>
    <i name="pawpsdc">    852.28757510 </i>
    <i name="pawaedc">   -853.63766408 </i>
    <i name="eentropy">     -0.00000000 </i>
    <i name="bandstr">    -87.11620911 </i>
    <i name="atom">    294.25444774 </i>
    <i name="e_fr_energy">    -18.46496473 </i>
    <i name="e_wo_entrp">    -18.46496473 </i>
    <i name="e_0_energy">    -18.46496473 </i>
   </energy>
  </scstep>
  <structure>
   <crystal>
    <varray name="basis" >
     <v>       1.23440832      -2.13805737       0.00000000 </v>
     <v>       1.23440832       2.13805737       0.00000000 </v>
     <v>       0.00000000       0.00000000      12.00000000 </v>
    </varray>
    <i name="volume">     63.34165937 </i>
    <varray name="rec_basis" >
     <v>       0.40505236      -0.23385715       0.00000000 </v>
     <v>       0.40505236       0.23385715       0.00000000 </v>
     <v>       0.00000000       0.00000000       0.08333333 </v>
    </varray>
   </crystal>
   <varray name="positions" >
    <v>       0.00000000       0.00000000       0.50000000 </v>
    <v>       0.33333300       0.66666700       0.50000000 </v>
   </varray>
  </structure>
  <varray name="forces" >
   <v>       0.00000000       0.00000000       0.00000000 </v>
   <v>       0.00000000       0.00000000       0.00000000 </v>
  </varray>
  <varray name="stress" >
   <v>      -6.83214617       0.00000000      -0.00000000 </v>
   <v>       0.00000000      -6.83214262       0.00000000 </v>
   <v>       0.00000000       0.00000000      -7.07081407 </v>
  </varray>
  <energy>
   <i name="e_fr_energy">    -18.46496473 </i>
   <i name="e_wo_entrp">    -18.46496473 </i>
   <i name="e_0_energy">     -0.00000000 </i>
  </energy>
  <time name="totalsc">  263.89   80.75</time>
  <eigenvalues>
   <array>
    <dimension dim="1">band</dimension>
    <dimension dim="2">kpoint</dimension>
    <dimension dim="3">spin</dimension>
    <field>eigene</field>
    <field>occ</field>
    <set>
     <set comment="spin 1">
      <set comment="kpoint 1">
       <r>  -21.2546    1.0000 </r>
       <r>   -9.3556    1.0000 </r>
       <r>   -4.7923    1.0000 </r>
       <r>   -4.7923    1.0000 </r>
       <r>    1.4575    0.0000 </r>
       <r>    2.6019    0.0000 </r>
       <r>    3.4292    0.0000 </r>
       <r>    6.5719    0.0000 </r>
      </set>
      <set comment="kpoint 2">
       <r>  -21.2100    1.0000 </r>
       <r>   -9.3030    1.0000 </r>
       <r>   -4.9771    1.0000 </r>
       <r>   -4.8887    1.0000 </r>
       <r>    1.5182    0.0000 </r>
       <r>    2.6625    0.0000 </r>
       <r>    3.4901    0.0000 </r>
       <r>    6.6307    0.0000 </r>
      </set>
      <set comment="kpoint 3">
       <r>  -21.0763    1.0000 </r>
       <r>   -9.1438    1.0000 </r>
       <r>   -5.4995    1.0000 </r>
       <r>   -5.1579    1.0000 </r>
       <r>    1.7001    0.0000 </r>
       <r>    2.8444    0.0000 </r>
       <r>    3.6729    0.0000 </r>
       <r>    6.6691    0.0000 </r>
      </set>
      <set comment="kpoint 4">
       <r>  -20.8539    1.0000 </r>
       <r>   -8.8795    1.0000 </r>
       <r>   -6.2863    1.0000 </r>
       <r>   -5.5466    1.0000 </r>
       <r>    2.0033    0.0000 </r>
       <r>    3.1472    0.0000 </r>
       <r>    3.9775    0.0000 </r>
       <r>    6.6120    0.0000 </r>
      </set>
      <set comment="kpoint 5">
       <r>  -20.5435    1.0000 </r>
       <r>   -8.5124    1.0000 </r>
       <r>   -7.2547    1.0000 </r>
       <r>   -5.9973    1.0000 </r>
       <r>    2.4275    0.0000 </r>
       <r>    3.5698    0.0000 </r>
       <r>    4.4037    0.0000 </r>
       <r>    6.5299    0.0000 </r>
      </set>
      <set comment="kpoint 6">
       <r>  -20.1462    1.0000 </r>
       <r>   -8.3339    1.0000 </r>
       <r>   -8.0457    1.0000 </r>
       <r>   -6.4625    1.0000 </r>
       <r>    2.9725    0.0000 </r>
       <r>    4.1084    0.0000 </r>
       <r>    4.9503    0.0000 </r>
       <r>    6.3480    0.0000 </r>
      </set>
      <set comment="kpoint 7">
       <r>  -19.6634    1.0000 </r>
       <r>   -9.4690    1.0000 </r>
       <r>   -7.4856    1.0000 </r>
       <r>   -6.9052    1.0000 </r>
       <r>    3.6372    0.0000 </r>
       <r>    4.7079    0.0000 </r>
       <r>    5.2518    0.0000 </r>
       <r>    5.6093    0.0000 </r>
      </set>
      <set comment="kpoint 8">
       <r>  -19.0973    1.0000 </r>
       <r>  -10.6207    1.0000 </r>
       <r>   -7.3019    1.0000 </r>
       <r>   -6.8409    1.0000 </r>
       <r>    3.9336    0.0000 </r>
       <r>    4.4199    0.0000 </r>
       <r>    5.5977    0.0000 </r>
       <r>    6.0023    0.0000 </r>
      </set>
      <set comment="kpoint 9">
       <r>  -18.4512    1.0000 </r>
       <r>  -11.7593    1.0000 </r>
       <r>   -7.6332    1.0000 </r>
       <r>   -6.1271    1.0000 </r>
       <r>    2.7437    0.0000 </r>
       <r>    5.3087    0.0000 </r>
       <r>    5.8769    0.0000 </r>
       <r>    6.4849    0.0000 </r>
      </set>
      <set comment="kpoint 10">
       <r>  -17.7313    1.0000 </r>
       <r>  -12.8619    1.0000 </r>
       <r>   -7.8896    1.0000 </r>
       <r>   -5.3795    1.0000 </r>
       <r>    1.6097    0.0000 </r>
       <r>    5.7059    0.0000 </r>
       <r>    6.3725    0.0000 </r>
       <r>    7.4941    0.0000 </r>
      </set>
      <set comment="kpoint 11">
       <r>  -16.9538    1.0000 </r>
       <r>  -13.9004    1.0000 </r>
       <r>   -8.0635    1.0000 </r>
       <r>   -4.6735    1.0000 </r>
       <r>    0.6352    0.0000 </r>
       <r>    5.6274    0.0000 </r>
       <r>    7.4934    0.0000 </r>
       <r>    8.6115    0.0000 </r>
      </set>
      <set comment="kpoint 12">
       <r>  -16.2056    1.0000 </r>
       <r>  -14.7806    1.0000 </r>
       <r>   -8.1517    1.0000 </r>
       <r>   -4.1875    1.0000 </r>
       <r>    0.0093    0.0000 </r>
       <r>    5.5833    0.0000 </r>
       <r>    8.7294    0.0000 </r>
       <r>    9.8168    0.0000 </r>
      </set>
      <set comment="kpoint 13">
       <r>  -21.1208    1.0000 </r>
       <r>   -9.1970    1.0000 </r>
       <r>   -5.3198    1.0000 </r>
       <r>   -5.0830    1.0000 </r>
       <r>    1.6394    0.0000 </r>
       <r>    2.7837    0.0000 </r>
       <r>    3.6120    0.0000 </r>
       <r>    6.6832    0.0000 </r>
      </set>
      <set comment="kpoint 14">
       <r>  -20.9428    1.0000 </r>
       <r>   -8.9852    1.0000 </r>
       <r>   -5.9495    1.0000 </r>
       <r>   -5.4363    1.0000 </r>
       <r>    1.8820    0.0000 </r>
       <r>    3.0261    0.0000 </r>
       <r>    3.8558    0.0000 </r>
       <r>    6.7784    0.0000 </r>
      </set>
      <set comment="kpoint 15">
       <r>  -20.6764    1.0000 </r>
       <r>   -8.6695    1.0000 </r>
       <r>   -6.8043    1.0000 </r>
       <r>   -5.8807    1.0000 </r>
       <r>    2.2458    0.0000 </r>
       <r>    3.3890    0.0000 </r>
       <r>    4.2214    0.0000 </r>
       <r>    6.7261    0.0000 </r>
      </set>
      <set comment="kpoint 16">
       <r>  -20.3226    1.0000 </r>
       <r>   -8.2526    1.0000 </r>
       <r>   -7.8100    1.0000 </r>
       <r>   -6.3574    1.0000 </r>
       <r>    2.7306    0.0000 </r>
       <r>    3.8704    0.0000 </r>
       <r>    4.7084    0.0000 </r>
       <r>    6.6418    0.0000 </r>
      </set>
      <set comment="kpoint 17">
       <r>  -19.8825    1.0000 </r>
       <r>   -8.9042    1.0000 </r>
       <r>   -7.7387    1.0000 </r>
       <r>   -6.8242    1.0000 </r>
       <r>    3.3357    0.0000 </r>
       <r>    4.4604    0.0000 </r>
       <r>    5.3147    0.0000 </r>
       <r>    5.7270    0.0000 </r>
      </set>
      <set comment="kpoint 18">
       <r>  -19.3580    1.0000 </r>
       <r>  -10.0391    1.0000 </r>
       <r>   -7.2520    1.0000 </r>
       <r>   -7.1351    1.0000 </r>
       <r>    4.0600    0.0000 </r>
       <r>    4.4787    0.0000 </r>
       <r>    5.2549    0.0000 </r>
       <r>    6.0162    0.0000 </r>
      </set>
      <set comment="kpoint 19">
       <r>  -18.7518    1.0000 </r>
       <r>  -11.1790    1.0000 </r>
       <r>   -7.6209    1.0000 </r>
       <r>   -6.4534    1.0000 </r>
       <r>    3.3110    0.0000 </r>
       <r>    4.9005    0.0000 </r>
       <r>    6.0634    0.0000 </r>
       <r>    6.1363    0.0000 </r>
      </set>
      <set comment="kpoint 20">
       <r>  -18.0683    1.0000 </r>
       <r>  -12.2968    1.0000 </r>
       <r>   -7.9182    1.0000 </r>
       <r>   -5.7168    1.0000 </r>
       <r>    2.1470    0.0000 </r>
       <r>    5.8057    0.0000 </r>
       <r>    6.0549    0.0000 </r>
       <r>    7.0133    0.0000 </r>
      </set>
      <set comment="kpoint 21">
       <r>  -17.3169    1.0000 </r>
       <r>  -13.3679    1.0000 </r>
       <r>   -8.1359    1.0000 </r>
       <r>   -4.9760    1.0000 </r>
       <r>    1.0810    0.0000 </r>
       <r>    5.8665    0.0000 </r>
       <r>    6.9613    0.0000 </r>
       <r>    8.0744    0.0000 </r>
      </set>
      <set comment="kpoint 22">
       <r>  -16.5309    1.0000 </r>
       <r>  -14.3494    1.0000 </r>
       <r>   -8.2683    1.0000 </r>
       <r>   -4.3468    1.0000 </r>
       <r>    0.2492    0.0000 </r>
       <r>    5.8025    0.0000 </r>
       <r>    8.1421    0.0000 </r>
       <r>    9.2327    0.0000 </r>
      </set>
      <set comment="kpoint 23">
       <r>  -16.0006    1.0000 </r>
       <r>  -14.9453    1.0000 </r>
       <r>   -8.3129    1.0000 </r>
       <r>   -4.0751    1.0000 </r>
       <r>   -0.0908    0.0000 </r>
       <r>    5.7806    0.0000 </r>
       <r>    9.3562    0.0000 </r>
       <r>    9.5054    0.0000 </r>
      </set>
      <set comment="kpoint 24">
       <r>  -20.7208    1.0000 </r>
       <r>   -8.7220    1.0000 </r>
       <r>   -6.6040    1.0000 </r>
       <r>   -5.8902    1.0000 </r>
       <r>    2.1853    0.0000 </r>
       <r>    3.3287    0.0000 </r>
       <r>    4.1607    0.0000 </r>
       <r>    6.9414    0.0000 </r>
      </set>
      <set comment="kpoint 25">
       <r>  -20.4109    1.0000 </r>
       <r>   -8.3562    1.0000 </r>
       <r>   -7.4375    1.0000 </r>
       <r>   -6.4182    1.0000 </r>
       <r>    2.6097    0.0000 </r>
       <r>    3.7510    0.0000 </r>
       <r>    4.5875    0.0000 </r>
       <r>    7.0888    0.0000 </r>
      </set>
      <set comment="kpoint 26">
       <r>  -20.0143    1.0000 </r>
       <r>   -8.4140    1.0000 </r>
       <r>   -7.8914    1.0000 </r>
       <r>   -6.9427    1.0000 </r>
       <r>    3.1548    0.0000 </r>
       <r>    4.2901    0.0000 </r>
       <r>    5.1356    0.0000 </r>
       <r>    6.0752    0.0000 </r>
      </set>
      <set comment="kpoint 27">
       <r>  -19.5326    1.0000 </r>
       <r>   -9.4790    1.0000 </r>
       <r>   -7.4237    1.0000 </r>
       <r>   -7.3329    1.0000 </r>
       <r>    3.8199    0.0000 </r>
       <r>    4.8283    0.0000 </r>
       <r>    5.0979    0.0000 </r>
       <r>    5.8028    0.0000 </r>
      </set>
      <set comment="kpoint 28">
       <r>  -18.9679    1.0000 </r>
       <r>  -10.5850    1.0000 </r>
       <r>   -7.8432    1.0000 </r>
       <r>   -6.6896    1.0000 </r>
       <r>    3.8005    0.0000 </r>
       <r>    4.6036    0.0000 </r>
       <r>    5.7516    0.0000 </r>
       <r>    6.5577    0.0000 </r>
      </set>
      <set comment="kpoint 29">
       <r>  -18.3237    1.0000 </r>
       <r>  -11.6936    1.0000 </r>
       <r>   -8.1885    1.0000 </r>
       <r>   -5.9777    1.0000 </r>
       <r>    2.6481    0.0000 </r>
       <r>    5.5023    0.0000 </r>
       <r>    6.6380    0.0000 </r>
       <r>    6.6399    0.0000 </r>
      </set>
      <set comment="kpoint 30">
       <r>  -17.6064    1.0000 </r>
       <r>  -12.7756    1.0000 </r>
       <r>   -8.4535    1.0000 </r>
       <r>   -5.2302    1.0000 </r>
       <r>    1.5450    0.0000 </r>
       <r>    6.4142    0.0000 </r>
       <r>    6.6231    0.0000 </r>
       <r>    7.6386    0.0000 </r>
      </set>
      <set comment="kpoint 31">
       <r>  -16.8325    1.0000 </r>
       <r>  -13.8002    1.0000 </r>
       <r>   -8.6323    1.0000 </r>
       <r>   -4.5209    1.0000 </r>
       <r>    0.5858    0.0000 </r>
       <r>    6.4070    0.0000 </r>
       <r>    7.6700    0.0000 </r>
       <r>    8.7322    0.0000 </r>
      </set>
      <set comment="kpoint 32">
       <r>  -16.0892    1.0000 </r>
       <r>  -14.6708    1.0000 </r>
       <r>   -8.7225    1.0000 </r>
       <r>   -4.0268    1.0000 </r>
       <r>   -0.0363    0.0000 </r>
       <r>    6.3642    0.0000 </r>
       <r>    8.8977    0.0000 </r>
       <r>    9.8720    0.0000 </r>
      </set>
      <set comment="kpoint 33">
       <r>  -20.0583    1.0000 </r>
       <r>   -8.1840    1.0000 </r>
       <r>   -7.9423    1.0000 </r>
       <r>   -7.0534    1.0000 </r>
       <r>    3.0946    0.0000 </r>
       <r>    4.2322    0.0000 </r>
       <r>    5.0757    0.0000 </r>
       <r>    6.2002    0.0000 </r>
      </set>
      <set comment="kpoint 34">
       <r>  -19.6201    1.0000 </r>
       <r>   -9.0599    1.0000 </r>
       <r>   -7.6635    1.0000 </r>
       <r>   -7.4322    1.0000 </r>
       <r>    3.6998    0.0000 </r>
       <r>    4.8250    0.0000 </r>
       <r>    5.2221    0.0000 </r>
       <r>    5.6850    0.0000 </r>
      </set>
      <set comment="kpoint 35">
       <r>  -19.0980    1.0000 </r>
       <r>  -10.0475    1.0000 </r>
       <r>   -8.1853    1.0000 </r>
       <r>   -6.8326    1.0000 </r>
       <r>    4.1482    0.0000 </r>
       <r>    4.4244    0.0000 </r>
       <r>    5.5532    0.0000 </r>
       <r>    6.4137    0.0000 </r>
      </set>
      <set comment="kpoint 36">
       <r>  -18.4951    1.0000 </r>
       <r>  -11.0946    1.0000 </r>
       <r>   -8.6086    1.0000 </r>
       <r>   -6.1552    1.0000 </r>
       <r>    3.0534    0.0000 </r>
       <r>    5.2668    0.0000 </r>
       <r>    6.3800    0.0000 </r>
       <r>    7.2438    0.0000 </r>
      </set>
      <set comment="kpoint 37">
       <r>  -17.8161    1.0000 </r>
       <r>  -12.1535    1.0000 </r>
       <r>   -8.9365    1.0000 </r>
       <r>   -5.4210    1.0000 </r>
       <r>    1.9662    0.0000 </r>
       <r>    6.2232    0.0000 </r>
       <r>    7.3124    0.0000 </r>
       <r>    7.4462    0.0000 </r>
      </set>
      <set comment="kpoint 38">
       <r>  -17.0710    1.0000 </r>
       <r>  -13.1866    1.0000 </r>
       <r>   -9.1707    1.0000 </r>
       <r>   -4.6769    1.0000 </r>
       <r>    0.9509    0.0000 </r>
       <r>    7.2225    0.0000 </r>
       <r>    7.4159    0.0000 </r>
       <r>    8.3317    0.0000 </r>
      </set>
      <set comment="kpoint 39">
       <r>  -16.2933    1.0000 </r>
       <r>  -14.1427    1.0000 </r>
       <r>   -9.3113    1.0000 </r>
       <r>   -4.0340    1.0000 </r>
       <r>    0.1406    0.0000 </r>
       <r>    7.2584    0.0000 </r>
       <r>    8.4875    0.0000 </r>
       <r>    9.3852    0.0000 </r>
      </set>
      <set comment="kpoint 40">
       <r>  -15.7710    1.0000 </r>
       <r>  -14.7254    1.0000 </r>
       <r>   -9.3582    1.0000 </r>
       <r>   -3.7498    1.0000 </r>
       <r>   -0.2015    0.0000 </r>
       <r>    7.2381    0.0000 </r>
       <r>    9.6676    0.0000 </r>
       <r>    9.8392    0.0000 </r>
      </set>
      <set comment="kpoint 41">
       <r>  -19.1415    1.0000 </r>
       <r>   -9.7835    1.0000 </r>
       <r>   -8.3890    1.0000 </r>
       <r>   -6.8801    1.0000 </r>
       <r>    4.2811    0.0000 </r>
       <r>    4.3645    0.0000 </r>
       <r>    5.4823    0.0000 </r>
       <r>    6.3555    0.0000 </r>
      </set>
      <set comment="kpoint 42">
       <r>  -18.5811    1.0000 </r>
       <r>  -10.6270    1.0000 </r>
       <r>   -9.0011    1.0000 </r>
       <r>   -6.2445    1.0000 </r>
       <r>    3.2861    0.0000 </r>
       <r>    5.1477    0.0000 </r>
       <r>    6.2442    0.0000 </r>
       <r>    7.1451    0.0000 </r>
      </set>
      <set comment="kpoint 43">
       <r>  -17.9430    1.0000 </r>
       <r>  -11.5721    1.0000 </r>
       <r>   -9.4601    1.0000 </r>
       <r>   -5.5397    1.0000 </r>
       <r>    2.2672    0.0000 </r>
       <r>    6.0469    0.0000 </r>
       <r>    7.1062    0.0000 </r>
       <r>    8.0449    0.0000 </r>
      </set>
      <set comment="kpoint 44">
       <r>  -17.2339    1.0000 </r>
       <r>  -12.5580    1.0000 </r>
       <r>   -9.7840    1.0000 </r>
       <r>   -4.7922    1.0000 </r>
       <r>    1.2682    0.0000 </r>
       <r>    7.0578    0.0000 </r>
       <r>    8.0442    0.0000 </r>
       <r>    8.4707    0.0000 </r>
      </set>
      <set comment="kpoint 45">
       <r>  -16.4711    1.0000 </r>
       <r>  -13.5241    1.0000 </r>
       <r>   -9.9921    1.0000 </r>
       <r>   -4.0694    1.0000 </r>
       <r>    0.3685    0.0000 </r>
       <r>    8.1488    0.0000 </r>
       <r>    8.4168    0.0000 </r>
       <r>    8.9859    0.0000 </r>
      </set>
      <set comment="kpoint 46">
       <r>  -15.7413    1.0000 </r>
       <r>  -14.3605    1.0000 </r>
       <r>  -10.0946    1.0000 </r>
       <r>   -3.5472    1.0000 </r>
       <r>   -0.2461    0.0000 </r>
       <r>    8.3265    0.0000 </r>
       <r>    9.3961    0.0000 </r>
       <r>    9.6908    0.0000 </r>
      </set>
      <set comment="kpoint 47">
       <r>  -17.9854    1.0000 </r>
       <r>  -11.2749    1.0000 </r>
       <r>   -9.7424    1.0000 </r>
       <r>   -5.5792    1.0000 </r>
       <r>    2.3793    0.0000 </r>
       <r>    5.9875    0.0000 </r>
       <r>    7.0349    0.0000 </r>
       <r>    7.9944    0.0000 </r>
      </set>
      <set comment="kpoint 48">
       <r>  -17.3163    1.0000 </r>
       <r>  -12.0487    1.0000 </r>
       <r>  -10.2960    1.0000 </r>
       <r>   -4.8534    1.0000 </r>
       <r>    1.4556    0.0000 </r>
       <r>    6.9405    0.0000 </r>
       <r>    7.8900    0.0000 </r>
       <r>    8.9551    0.0000 </r>
      </set>
      <set comment="kpoint 49">
       <r>  -16.5846    1.0000 </r>
       <r>  -12.9183    1.0000 </r>
       <r>  -10.6485    1.0000 </r>
       <r>   -4.1035    1.0000 </r>
       <r>    0.5571    0.0000 </r>
       <r>    7.9987    0.0000 </r>
       <r>    8.7123    0.0000 </r>
       <r>    9.6084    0.0000 </r>
      </set>
      <set comment="kpoint 50">
       <r>  -15.8243    1.0000 </r>
       <r>  -13.7872    1.0000 </r>
       <r>  -10.8416    1.0000 </r>
       <r>   -3.4267    1.0000 </r>
       <r>   -0.2129    0.0000 </r>
       <r>    9.1337    0.0000 </r>
       <r>    9.2637    0.0000 </r>
       <r>    9.5602    0.0000 </r>
      </set>
      <set comment="kpoint 51">
       <r>  -15.3126    1.0000 </r>
       <r>  -14.3391    1.0000 </r>
       <r>  -10.9030    1.0000 </r>
       <r>   -3.1036    1.0000 </r>
       <r>   -0.5669    0.0000 </r>
       <r>    9.4153    0.0000 </r>
       <r>    9.4983    0.0000 </r>
       <r>   10.2495    0.0000 </r>
      </set>
      <set comment="kpoint 52">
       <r>  -16.6234    1.0000 </r>
       <r>  -12.5969    1.0000 </r>
       <r>  -10.9892    1.0000 </r>
       <r>   -4.1172    1.0000 </r>
       <r>    0.6302    0.0000 </r>
       <r>    7.9403    0.0000 </r>
       <r>    8.6130    0.0000 </r>
       <r>    9.9681    0.0000 </r>
      </set>
      <set comment="kpoint 53">
       <r>  -15.8823    1.0000 </r>
       <r>  -13.2765    1.0000 </r>
       <r>  -11.4311    1.0000 </r>
       <r>   -3.3741    1.0000 </r>
       <r>   -0.1693    0.0000 </r>
       <r>    9.0125    0.0000 </r>
       <r>    9.0294    0.0000 </r>
       <r>   10.6995    0.0000 </r>
      </set>
      <set comment="kpoint 54">
       <r>  -15.1712    1.0000 </r>
       <r>  -13.9843    1.0000 </r>
       <r>  -11.6283    1.0000 </r>
       <r>   -2.7696    1.0000 </r>
       <r>   -0.8003    0.0000 </r>
       <r>    9.0802    0.0000 </r>
       <r>   10.1464    0.0000 </r>
       <r>   10.6425    0.0000 </r>
      </set>
      <set comment="kpoint 55">
       <r>  -15.1586    1.0000 </r>
       <r>  -13.7194    1.0000 </r>
       <r>  -11.9849    1.0000 </r>
       <r>   -2.6394    1.0000 </r>
       <r>   -0.8922    0.0000 </r>
       <r>    8.9495    0.0000 </r>
       <r>   10.1004    0.0000 </r>
       <r>   11.2412    0.0000 </r>
      </set>
      <set comment="kpoint 56">
       <r>  -14.6272    1.0000 </r>
       <r>  -14.1494    1.0000 </r>
       <r>  -12.1782    1.0000 </r>
       <r>   -2.1455    1.0000 </r>
       <r>   -1.3810    0.0000 </r>
       <r>    8.8882    0.0000 </r>
       <r>   10.9355    0.0000 </r>
       <r>   11.0632    0.0000 </r>
      </set>
      <set comment="kpoint 57">
       <r>  -21.2546    1.0000 </r>
       <r>   -9.3556    1.0000 </r>
       <r>   -4.7923    1.0000 </r>
       <r>   -4.7923    1.0000 </r>
       <r>    1.4575    0.0000 </r>
       <r>    2.6019    0.0000 </r>
       <r>    3.4292    0.0000 </r>
       <r>    6.5719    0.0000 </r>
      </set>
      <set comment="kpoint 58">
       <r>  -21.2497    1.0000 </r>
       <r>   -9.3504    1.0000 </r>
       <r>   -4.8122    1.0000 </r>
       <r>   -4.8029    1.0000 </r>
       <r>    1.4641    0.0000 </r>
       <r>    2.6083    0.0000 </r>
       <r>    3.4358    0.0000 </r>
       <r>    6.5779    0.0000 </r>
      </set>
      <set comment="kpoint 59">
       <r>  -21.2353    1.0000 </r>
       <r>   -9.3332    1.0000 </r>
       <r>   -4.8722    1.0000 </r>
       <r>   -4.8342    1.0000 </r>
       <r>    1.4837    0.0000 </r>
       <r>    2.6280    0.0000 </r>
       <r>    3.4555    0.0000 </r>
       <r>    6.5971    0.0000 </r>
      </set>
      <set comment="kpoint 60">
       <r>  -21.2112    1.0000 </r>
       <r>   -9.3045    1.0000 </r>
       <r>   -4.9719    1.0000 </r>
       <r>   -4.8860    1.0000 </r>
       <r>    1.5164    0.0000 </r>
       <r>    2.6607    0.0000 </r>
       <r>    3.4884    0.0000 </r>
       <r>    6.6291    0.0000 </r>
      </set>
      <set comment="kpoint 61">
       <r>  -21.1775    1.0000 </r>
       <r>   -9.2644    1.0000 </r>
       <r>   -5.1080    1.0000 </r>
       <r>   -4.9572    1.0000 </r>
       <r>    1.5623    0.0000 </r>
       <r>    2.7066    0.0000 </r>
       <r>    3.5344    0.0000 </r>
       <r>    6.6226    0.0000 </r>
      </set>
      <set comment="kpoint 62">
       <r>  -21.1342    1.0000 </r>
       <r>   -9.2128    1.0000 </r>
       <r>   -5.2784    1.0000 </r>
       <r>   -5.0451    1.0000 </r>
       <r>    1.6212    0.0000 </r>
       <r>    2.7655    0.0000 </r>
       <r>    3.5936    0.0000 </r>
       <r>    6.6440    0.0000 </r>
      </set>
      <set comment="kpoint 63">
       <r>  -21.0813    1.0000 </r>
       <r>   -9.1498    1.0000 </r>
       <r>   -5.4805    1.0000 </r>
       <r>   -5.1482    1.0000 </r>
       <r>    1.6932    0.0000 </r>
       <r>    2.8375    0.0000 </r>
       <r>    3.6660    0.0000 </r>
       <r>    6.6669    0.0000 </r>
      </set>
      <set comment="kpoint 64">
       <r>  -21.0188    1.0000 </r>
       <r>   -9.0754    1.0000 </r>
       <r>   -5.7115    1.0000 </r>
       <r>   -5.2645    1.0000 </r>
       <r>    1.7783    0.0000 </r>
       <r>    2.9226    0.0000 </r>
       <r>    3.7515    0.0000 </r>
       <r>    6.6811    0.0000 </r>
      </set>
      <set comment="kpoint 65">
       <r>  -20.9468    1.0000 </r>
       <r>   -8.9898    1.0000 </r>
       <r>   -5.9684    1.0000 </r>
       <r>   -5.3920    1.0000 </r>
       <r>    1.8765    0.0000 </r>
       <r>    3.0207    0.0000 </r>
       <r>    3.8502    0.0000 </r>
       <r>    6.6229    0.0000 </r>
      </set>
      <set comment="kpoint 66">
       <r>  -20.8652    1.0000 </r>
       <r>   -8.8930    1.0000 </r>
       <r>   -6.2483    1.0000 </r>
       <r>   -5.5283    1.0000 </r>
       <r>    1.9878    0.0000 </r>
       <r>    3.1318    0.0000 </r>
       <r>    3.9620    0.0000 </r>
       <r>    6.6138    0.0000 </r>
      </set>
      <set comment="kpoint 67">
       <r>  -20.7742    1.0000 </r>
       <r>   -8.7849    1.0000 </r>
       <r>   -6.5477    1.0000 </r>
       <r>   -5.6712    1.0000 </r>
       <r>    2.1121    0.0000 </r>
       <r>    3.2559    0.0000 </r>
       <r>    4.0869    0.0000 </r>
       <r>    6.5962    0.0000 </r>
      </set>
      <set comment="kpoint 68">
       <r>  -20.6736    1.0000 </r>
       <r>   -8.6659    1.0000 </r>
       <r>   -6.8642    1.0000 </r>
       <r>   -5.8194    1.0000 </r>
       <r>    2.2496    0.0000 </r>
       <r>    3.3928    0.0000 </r>
       <r>    4.2250    0.0000 </r>
       <r>    6.5709    0.0000 </r>
      </set>
      <set comment="kpoint 69">
       <r>  -20.5636    1.0000 </r>
       <r>   -8.5361    1.0000 </r>
       <r>   -7.1959    1.0000 </r>
       <r>   -5.9710    1.0000 </r>
       <r>    2.4000    0.0000 </r>
       <r>    3.5425    0.0000 </r>
       <r>    4.3761    0.0000 </r>
       <r>    6.5363    0.0000 </r>
      </set>
      <set comment="kpoint 70">
       <r>  -20.4442    1.0000 </r>
       <r>   -8.3953    1.0000 </r>
       <r>   -7.5394    1.0000 </r>
       <r>   -6.1242    1.0000 </r>
       <r>    2.5635    0.0000 </r>
       <r>    3.7049    0.0000 </r>
       <r>    4.5403    0.0000 </r>
       <r>    6.4981    0.0000 </r>
      </set>
      <set comment="kpoint 71">
       <r>  -20.3155    1.0000 </r>
       <r>   -8.2440    1.0000 </r>
       <r>   -7.8929    1.0000 </r>
       <r>   -6.2774    1.0000 </r>
       <r>    2.7400    0.0000 </r>
       <r>    3.8796    0.0000 </r>
       <r>    4.7174    0.0000 </r>
       <r>    6.4525    0.0000 </r>
      </set>
      <set comment="kpoint 72">
       <r>  -20.1774    1.0000 </r>
       <r>   -8.2545    1.0000 </r>
       <r>   -8.0823    1.0000 </r>
       <r>   -6.4297    1.0000 </r>
       <r>    2.9296    0.0000 </r>
       <r>    4.0663    0.0000 </r>
       <r>    4.9074    0.0000 </r>
       <r>    6.4028    0.0000 </r>
      </set>
      <set comment="kpoint 73">
       <r>  -20.0301    1.0000 </r>
       <r>   -8.6225    1.0000 </r>
       <r>   -7.9104    1.0000 </r>
       <r>   -6.5795    1.0000 </r>
       <r>    3.1320    0.0000 </r>
       <r>    4.2637    0.0000 </r>
       <r>    5.1099    0.0000 </r>
       <r>    6.0591    0.0000 </r>
      </set>
      <set comment="kpoint 74">
       <r>  -19.8737    1.0000 </r>
       <r>   -8.9950    1.0000 </r>
       <r>   -7.7284    1.0000 </r>
       <r>   -6.7263    1.0000 </r>
       <r>    3.3474    0.0000 </r>
       <r>    4.4687    0.0000 </r>
       <r>    5.3244    0.0000 </r>
       <r>    5.6899    0.0000 </r>
      </set>
      <set comment="kpoint 75">
       <r>  -19.7081    1.0000 </r>
       <r>   -9.3706    1.0000 </r>
       <r>   -7.5371    1.0000 </r>
       <r>   -6.8689    1.0000 </r>
       <r>    3.5756    0.0000 </r>
       <r>    4.6659    0.0000 </r>
       <r>    5.3341    0.0000 </r>
       <r>    5.5494    0.0000 </r>
      </set>
      <set comment="kpoint 76">
       <r>  -19.5335    1.0000 </r>
       <r>   -9.7483    1.0000 </r>
       <r>   -7.3363    1.0000 </r>
       <r>   -7.0063    1.0000 </r>
       <r>    3.8166    0.0000 </r>
       <r>    4.7230    0.0000 </r>
       <r>    5.1251    0.0000 </r>
       <r>    5.7791    0.0000 </r>
      </set>
      <set comment="kpoint 77">
       <r>  -19.3499    1.0000 </r>
       <r>  -10.1269    1.0000 </r>
       <r>   -7.1380    1.0000 </r>
       <r>   -7.1266    1.0000 </r>
       <r>    4.0703    0.0000 </r>
       <r>    4.4317    0.0000 </r>
       <r>    5.2726    0.0000 </r>
       <r>    5.9739    0.0000 </r>
      </set>
      <set comment="kpoint 78">
       <r>  -19.1576    1.0000 </r>
       <r>  -10.5057    1.0000 </r>
       <r>   -7.2651    1.0000 </r>
       <r>   -6.9088    1.0000 </r>
       <r>    4.0518    0.0000 </r>
       <r>    4.3364    0.0000 </r>
       <r>    5.5173    0.0000 </r>
       <r>    6.0108    0.0000 </r>
      </set>
      <set comment="kpoint 79">
       <r>  -18.9565    1.0000 </r>
       <r>  -10.8827    1.0000 </r>
       <r>   -7.3836    1.0000 </r>
       <r>   -6.6823    1.0000 </r>
       <r>    3.6619    0.0000 </r>
       <r>    4.6148    0.0000 </r>
       <r>    5.7883    0.0000 </r>
       <r>    5.9753    0.0000 </r>
      </set>
      <set comment="kpoint 80">
       <r>  -18.7469    1.0000 </r>
       <r>  -11.2580    1.0000 </r>
       <r>   -7.4951    1.0000 </r>
       <r>   -6.4497    1.0000 </r>
       <r>    3.2692    0.0000 </r>
       <r>    4.9047    0.0000 </r>
       <r>    5.9312    0.0000 </r>
       <r>    6.0756    0.0000 </r>
      </set>
      <set comment="kpoint 81">
       <r>  -18.5289    1.0000 </r>
       <r>  -11.6305    1.0000 </r>
       <r>   -7.5989    1.0000 </r>
       <r>   -6.2112    1.0000 </r>
       <r>    2.8785    0.0000 </r>
       <r>    5.2037    0.0000 </r>
       <r>    5.8892    0.0000 </r>
       <r>    6.3770    0.0000 </r>
      </set>
      <set comment="kpoint 82">
       <r>  -18.3029    1.0000 </r>
       <r>  -11.9995    1.0000 </r>
       <r>   -7.6946    1.0000 </r>
       <r>   -5.9682    1.0000 </r>
       <r>    2.4929    0.0000 </r>
       <r>    5.5014    0.0000 </r>
       <r>    5.8630    0.0000 </r>
       <r>    6.6915    0.0000 </r>
      </set>
      <set comment="kpoint 83">
       <r>  -18.0690    1.0000 </r>
       <r>  -12.3638    1.0000 </r>
       <r>   -7.7821    1.0000 </r>
       <r>   -5.7222    1.0000 </r>
       <r>    2.1159    0.0000 </r>
       <r>    5.7045    0.0000 </r>
       <r>    5.9481    0.0000 </r>
       <r>    7.0188    0.0000 </r>
      </set>
      <set comment="kpoint 84">
       <r>  -17.8276    1.0000 </r>
       <r>  -12.7230    1.0000 </r>
       <r>   -7.8611    1.0000 </r>
       <r>   -5.4756    1.0000 </r>
       <r>    1.7494    0.0000 </r>
       <r>    5.7148    0.0000 </r>
       <r>    6.2407    0.0000 </r>
       <r>    7.3581    0.0000 </r>
      </set>
      <set comment="kpoint 85">
       <r>  -17.5795    1.0000 </r>
       <r>  -13.0759    1.0000 </r>
       <r>   -7.9311    1.0000 </r>
       <r>   -5.2315    1.0000 </r>
       <r>    1.3976    0.0000 </r>
       <r>    5.6895    0.0000 </r>
       <r>    6.5851    0.0000 </r>
       <r>    7.7092    0.0000 </r>
      </set>
      <set comment="kpoint 86">
       <r>  -17.3255    1.0000 </r>
       <r>  -13.4213    1.0000 </r>
       <r>   -7.9919    1.0000 </r>
       <r>   -4.9932    1.0000 </r>
       <r>    1.0656    0.0000 </r>
       <r>    5.6624    0.0000 </r>
       <r>    6.9483    0.0000 </r>
       <r>    8.0719    0.0000 </r>
      </set>
      <set comment="kpoint 87">
       <r>  -17.0670    1.0000 </r>
       <r>  -13.7576    1.0000 </r>
       <r>   -8.0436    1.0000 </r>
       <r>   -4.7665    1.0000 </r>
       <r>    0.7591    0.0000 </r>
       <r>    5.6373    0.0000 </r>
       <r>    7.3255    0.0000 </r>
       <r>    8.4458    0.0000 </r>
      </set>
      <set comment="kpoint 88">
       <r>  -16.8067    1.0000 </r>
       <r>  -14.0821    1.0000 </r>
       <r>   -8.0867    1.0000 </r>
       <r>   -4.5598    1.0000 </r>
       <r>    0.4832    0.0000 </r>
       <r>    5.6155    0.0000 </r>
       <r>    7.7150    0.0000 </r>
       <r>    8.8295    0.0000 </r>
      </set>
      <set comment="kpoint 89">
       <r>  -16.5497    1.0000 </r>
       <r>  -14.3888    1.0000 </r>
       <r>   -8.1199    1.0000 </r>
       <r>   -4.3795    1.0000 </r>
       <r>    0.2510    0.0000 </r>
       <r>    5.5990    0.0000 </r>
       <r>    8.1165    0.0000 </r>
       <r>    9.2230    0.0000 </r>
      </set>
      <set comment="kpoint 90">
       <r>  -16.3082    1.0000 </r>
       <r>  -14.6661    1.0000 </r>
       <r>   -8.1437    1.0000 </r>
       <r>   -4.2381    1.0000 </r>
       <r>    0.0722    0.0000 </r>
       <r>    5.5872    0.0000 </r>
       <r>    8.5288    0.0000 </r>
       <r>    9.6238    0.0000 </r>
      </set>
      <set comment="kpoint 91">
       <r>  -16.1123    1.0000 </r>
       <r>  -14.8833    1.0000 </r>
       <r>   -8.1580    1.0000 </r>
       <r>   -4.1470    1.0000 </r>
       <r>   -0.0412    0.0000 </r>
       <r>    5.5803    0.0000 </r>
       <r>    8.9498    0.0000 </r>
       <r>    9.8389    0.0000 </r>
      </set>
      <set comment="kpoint 92">
       <r>  -16.0293    1.0000 </r>
       <r>  -14.9735    1.0000 </r>
       <r>   -8.1628    1.0000 </r>
       <r>   -4.1154    1.0000 </r>
       <r>   -0.0803    0.0000 </r>
       <r>    5.5779    0.0000 </r>
       <r>    9.3166    0.0000 </r>
       <r>    9.4634    0.0000 </r>
      </set>
      <set comment="kpoint 93">
       <r>  -16.0293    1.0000 </r>
       <r>  -14.9735    1.0000 </r>
       <r>   -8.1628    1.0000 </r>
       <r>   -4.1154    1.0000 </r>
       <r>   -0.0803    0.0000 </r>
       <r>    5.5779    0.0000 </r>
       <r>    9.3166    0.0000 </r>
       <r>    9.4634    0.0000 </r>
      </set>
      <set comment="kpoint 94">
       <r>  -16.0251    1.0000 </r>
       <r>  -14.9693    1.0000 </r>
       <r>   -8.1848    1.0000 </r>
       <r>   -4.1094    1.0000 </r>
       <r>   -0.0812    0.0000 </r>
       <r>    5.6081    0.0000 </r>
       <r>    9.3224    0.0000 </r>
       <r>    9.4696    0.0000 </r>
      </set>
      <set comment="kpoint 95">
       <r>  -16.0124    1.0000 </r>
       <r>  -14.9569    1.0000 </r>
       <r>   -8.2514    1.0000 </r>
       <r>   -4.0916    1.0000 </r>
       <r>   -0.0857    0.0000 </r>
       <r>    5.6977    0.0000 </r>
       <r>    9.3399    0.0000 </r>
       <r>    9.4881    0.0000 </r>
      </set>
      <set comment="kpoint 96">
       <r>  -15.9913    1.0000 </r>
       <r>  -14.9362    1.0000 </r>
       <r>   -8.3601    1.0000 </r>
       <r>   -4.0619    1.0000 </r>
       <r>   -0.0942    0.0000 </r>
       <r>    5.8449    0.0000 </r>
       <r>    9.3690    0.0000 </r>
       <r>    9.5190    0.0000 </r>
      </set>
      <set comment="kpoint 97">
       <r>  -15.9618    1.0000 </r>
       <r>  -14.9073    1.0000 </r>
       <r>   -8.5073    1.0000 </r>
       <r>   -4.0200    1.0000 </r>
       <r>   -0.1054    0.0000 </r>
       <r>    6.0465    0.0000 </r>
       <r>    9.4096    0.0000 </r>
       <r>    9.5623    0.0000 </r>
      </set>
      <set comment="kpoint 98">
       <r>  -15.9238    1.0000 </r>
       <r>  -14.8705    1.0000 </r>
       <r>   -8.6899    1.0000 </r>
       <r>   -3.9655    1.0000 </r>
       <r>   -0.1221    0.0000 </r>
       <r>    6.2980    0.0000 </r>
       <r>    9.4616    0.0000 </r>
       <r>    9.6177    0.0000 </r>
      </set>
      <set comment="kpoint 99">
       <r>  -15.8774    1.0000 </r>
       <r>  -14.8260    1.0000 </r>
       <r>   -8.9034    1.0000 </r>
       <r>   -3.9007    1.0000 </r>
       <r>   -0.1440    0.0000 </r>
       <r>    6.5950    0.0000 </r>
       <r>    9.5247    0.0000 </r>
       <r>    9.6851    0.0000 </r>
      </set>
      <set comment="kpoint 100">
       <r>  -15.8227    1.0000 </r>
       <r>  -14.7738    1.0000 </r>
       <r>   -9.1435    1.0000 </r>
       <r>   -3.8230    1.0000 </r>
       <r>   -0.1724    0.0000 </r>
       <r>    6.9324    0.0000 </r>
       <r>    9.5985    0.0000 </r>
       <r>    9.7647    0.0000 </r>
      </set>
      <set comment="kpoint 101">
       <r>  -15.7594    1.0000 </r>
       <r>  -14.7146    1.0000 </r>
       <r>   -9.4050    1.0000 </r>
       <r>   -3.7334    1.0000 </r>
       <r>   -0.2083    0.0000 </r>
       <r>    7.3052    0.0000 </r>
       <r>    9.6831    0.0000 </r>
       <r>    9.8560    0.0000 </r>
      </set>
      <set comment="kpoint 102">
       <r>  -15.6878    1.0000 </r>
       <r>  -14.6490    1.0000 </r>
       <r>   -9.6844    1.0000 </r>
       <r>   -3.6324    1.0000 </r>
       <r>   -0.2539    0.0000 </r>
       <r>    7.7064    0.0000 </r>
       <r>    9.7779    0.0000 </r>
       <r>    9.9830    0.0000 </r>
      </set>
      <set comment="kpoint 103">
       <r>  -15.6077    1.0000 </r>
       <r>  -14.5776    1.0000 </r>
       <r>   -9.9771    1.0000 </r>
       <r>   -3.5188    1.0000 </r>
       <r>   -0.3101    0.0000 </r>
       <r>    8.1316    0.0000 </r>
       <r>    9.8591    0.0000 </r>
       <r>    9.8822    0.0000 </r>
      </set>
      <set comment="kpoint 104">
       <r>  -15.5193    1.0000 </r>
       <r>  -14.5016    1.0000 </r>
       <r>  -10.2782    1.0000 </r>
       <r>   -3.3942    1.0000 </r>
       <r>   -0.3791    0.0000 </r>
       <r>    8.5746    0.0000 </r>
       <r>    9.7190    0.0000 </r>
       <r>    9.9953    0.0000 </r>
      </set>
      <set comment="kpoint 105">
       <r>  -15.4225    1.0000 </r>
       <r>  -14.4224    1.0000 </r>
       <r>  -10.5842    1.0000 </r>
       <r>   -3.2580    1.0000 </r>
       <r>   -0.4634    0.0000 </r>
       <r>    9.0263    0.0000 </r>
       <r>    9.5702    0.0000 </r>
       <r>   10.1164    0.0000 </r>
      </set>
      <set comment="kpoint 106">
       <r>  -15.3173    1.0000 </r>
       <r>  -14.3425    1.0000 </r>
       <r>  -10.8898    1.0000 </r>
       <r>   -3.1103    1.0000 </r>
       <r>   -0.5622    0.0000 </r>
       <r>    9.4217    0.0000 </r>
       <r>    9.4788    0.0000 </r>
       <r>   10.2438    0.0000 </r>
      </set>
      <set comment="kpoint 107">
       <r>  -15.2038    1.0000 </r>
       <r>  -14.2653    1.0000 </r>
       <r>  -11.1896    1.0000 </r>
       <r>   -2.9513    1.0000 </r>
       <r>   -0.6788    0.0000 </r>
       <r>    9.2805    0.0000 </r>
       <r>    9.9179    0.0000 </r>
       <r>   10.3765    0.0000 </r>
      </set>
      <set comment="kpoint 108">
       <r>  -15.0819    1.0000 </r>
       <r>  -14.1959    1.0000 </r>
       <r>  -11.4762    1.0000 </r>
       <r>   -2.7799    1.0000 </r>
       <r>   -0.8131    0.0000 </r>
       <r>    9.1536    0.0000 </r>
       <r>   10.3200    0.0000 </r>
       <r>   10.5123    0.0000 </r>
      </set>
      <set comment="kpoint 109">
       <r>  -14.9518    1.0000 </r>
       <r>  -14.1427    1.0000 </r>
       <r>  -11.7401    1.0000 </r>
       <r>   -2.5977    1.0000 </r>
       <r>   -0.9663    0.0000 </r>
       <r>    9.0457    0.0000 </r>
       <r>   10.6472    0.0000 </r>
       <r>   10.6479    0.0000 </r>
      </set>
      <set comment="kpoint 110">
       <r>  -14.8134    1.0000 </r>
       <r>  -14.1174    1.0000 </r>
       <r>  -11.9678    1.0000 </r>
       <r>   -2.4046    1.0000 </r>
       <r>   -1.1383    0.0000 </r>
       <r>    8.9605    0.0000 </r>
       <r>   10.7803    0.0000 </r>
       <r>   10.8766    0.0000 </r>
      </set>
      <set comment="kpoint 111">
       <r>  -14.6668    1.0000 </r>
       <r>  -14.1356    1.0000 </r>
       <r>  -12.1431    1.0000 </r>
       <r>   -2.2006    1.0000 </r>
       <r>   -1.3285    0.0000 </r>
       <r>    8.8999    0.0000 </r>
       <r>   10.9050    0.0000 </r>
       <r>   11.0327    0.0000 </r>
      </set>
      <set comment="kpoint 112">
       <r>  -14.5120    1.0000 </r>
       <r>  -14.2113    1.0000 </r>
       <r>  -12.2510    1.0000 </r>
       <r>   -1.9854    1.0000 </r>
       <r>   -1.5361    0.0000 </r>
       <r>    8.8643    0.0000 </r>
       <r>   11.0165    0.0000 </r>
       <r>   11.1224    0.0000 </r>
      </set>
      <set comment="kpoint 113">
       <r>  -14.3491    1.0000 </r>
       <r>  -14.3490    1.0000 </r>
       <r>  -12.2858    1.0000 </r>
       <r>   -1.7595    0.0156 </r>
       <r>   -1.7595    0.0156 </r>
       <r>    8.8529    0.0000 </r>
       <r>   11.1101    0.0000 </r>
       <r>   11.1101    0.0000 </r>
      </set>
      <set comment="kpoint 114">
       <r>  -14.3491    1.0000 </r>
       <r>  -14.3490    1.0000 </r>
       <r>  -12.2858    1.0000 </r>
       <r>   -1.7595    0.0156 </r>
       <r>   -1.7595    0.0156 </r>
       <r>    8.8529    0.0000 </r>
       <r>   11.1101    0.0000 </r>
       <r>   11.1101    0.0000 </r>
      </set>
      <set comment="kpoint 115">
       <r>  -14.5358    1.0000 </r>
       <r>  -14.1822    1.0000 </r>
       <r>  -12.2567    1.0000 </r>
       <r>   -1.9919    1.0000 </r>
       <r>   -1.5292    0.0000 </r>
       <r>    8.8627    0.0000 </r>
       <r>   10.9544    0.0000 </r>
       <r>   11.1787    0.0000 </r>
      </set>
      <set comment="kpoint 116">
       <r>  -14.7606    1.0000 </r>
       <r>  -14.0077    1.0000 </r>
       <r>  -12.1779    1.0000 </r>
       <r>   -2.2364    1.0000 </r>
       <r>   -1.2885    0.0000 </r>
       <r>    8.8894    0.0000 </r>
       <r>   10.6729    0.0000 </r>
       <r>   11.2231    0.0000 </r>
      </set>
      <set comment="kpoint 117">
       <r>  -15.0103    1.0000 </r>
       <r>  -13.8257    1.0000 </r>
       <r>  -12.0625    1.0000 </r>
       <r>   -2.4915    1.0000 </r>
       <r>   -1.0382    0.0000 </r>
       <r>    8.9269    0.0000 </r>
       <r>   10.3180    0.0000 </r>
       <r>   11.2412    0.0000 </r>
      </set>
      <set comment="kpoint 118">
       <r>  -15.2749    1.0000 </r>
       <r>  -13.6360    1.0000 </r>
       <r>  -11.9200    1.0000 </r>
       <r>   -2.7549    1.0000 </r>
       <r>   -0.7779    0.0000 </r>
       <r>    8.9660    0.0000 </r>
       <r>    9.9281    0.0000 </r>
       <r>   11.2358    0.0000 </r>
      </set>
      <set comment="kpoint 119">
       <r>  -15.5476    1.0000 </r>
       <r>  -13.4388    1.0000 </r>
       <r>  -11.7568    1.0000 </r>
       <r>   -3.0257    1.0000 </r>
       <r>   -0.5083    0.0000 </r>
       <r>    8.9928    0.0000 </r>
       <r>    9.5230    0.0000 </r>
       <r>   11.3514    0.0000 </r>
      </set>
      <set comment="kpoint 120">
       <r>  -15.8239    1.0000 </r>
       <r>  -13.2343    1.0000 </r>
       <r>  -11.5778    1.0000 </r>
       <r>   -3.3011    1.0000 </r>
       <r>   -0.2300    0.0000 </r>
       <r>    8.9878    0.0000 </r>
       <r>    9.1131    0.0000 </r>
       <r>   11.0924    0.0000 </r>
      </set>
      <set comment="kpoint 121">
       <r>  -16.1005    1.0000 </r>
       <r>  -13.0224    1.0000 </r>
       <r>  -11.3858    1.0000 </r>
       <r>   -3.5799    1.0000 </r>
       <r>    0.0569    0.0000 </r>
       <r>    8.7049    0.0000 </r>
       <r>    8.9276    0.0000 </r>
       <r>   10.7248    0.0000 </r>
      </set>
      <set comment="kpoint 122">
       <r>  -16.3753    1.0000 </r>
       <r>  -12.8031    1.0000 </r>
       <r>  -11.1827    1.0000 </r>
       <r>   -3.8607    1.0000 </r>
       <r>    0.3529    0.0000 </r>
       <r>    8.3020    0.0000 </r>
       <r>    8.7957    0.0000 </r>
       <r>   10.3301    0.0000 </r>
      </set>
      <set comment="kpoint 123">
       <r>  -16.6468    1.0000 </r>
       <r>  -12.5770    1.0000 </r>
       <r>  -10.9704    1.0000 </r>
       <r>   -4.1416    1.0000 </r>
       <r>    0.6570    0.0000 </r>
       <r>    7.9062    0.0000 </r>
       <r>    8.5930    0.0000 </r>
       <r>    9.9338    0.0000 </r>
      </set>
      <set comment="kpoint 124">
       <r>  -16.9139    1.0000 </r>
       <r>  -12.3437    1.0000 </r>
       <r>  -10.7501    1.0000 </r>
       <r>   -4.4215    1.0000 </r>
       <r>    0.9695    0.0000 </r>
       <r>    7.5194    0.0000 </r>
       <r>    8.3371    0.0000 </r>
       <r>    9.5437    0.0000 </r>
      </set>
      <set comment="kpoint 125">
       <r>  -17.1757    1.0000 </r>
       <r>  -12.1035    1.0000 </r>
       <r>  -10.5227    1.0000 </r>
       <r>   -4.6993    1.0000 </r>
       <r>    1.2893    0.0000 </r>
       <r>    7.1422    0.0000 </r>
       <r>    8.0484    0.0000 </r>
       <r>    9.1624    0.0000 </r>
      </set>
      <set comment="kpoint 126">
       <r>  -17.4315    1.0000 </r>
       <r>  -11.8566    1.0000 </r>
       <r>  -10.2890    1.0000 </r>
       <r>   -4.9740    1.0000 </r>
       <r>    1.6177    0.0000 </r>
       <r>    6.7755    0.0000 </r>
       <r>    7.7425    0.0000 </r>
       <r>    8.7915    0.0000 </r>
      </set>
      <set comment="kpoint 127">
       <r>  -17.6809    1.0000 </r>
       <r>  -11.6033    1.0000 </r>
       <r>  -10.0501    1.0000 </r>
       <r>   -5.2450    1.0000 </r>
       <r>    1.9501    0.0000 </r>
       <r>    6.4198    0.0000 </r>
       <r>    7.4295    0.0000 </r>
       <r>    8.4316    0.0000 </r>
      </set>
      <set comment="kpoint 128">
       <r>  -17.9233    1.0000 </r>
       <r>  -11.3436    1.0000 </r>
       <r>   -9.8066    1.0000 </r>
       <r>   -5.5108    1.0000 </r>
       <r>    2.2898    0.0000 </r>
       <r>    6.0755    0.0000 </r>
       <r>    7.1162    0.0000 </r>
       <r>    8.0833    0.0000 </r>
      </set>
      <set comment="kpoint 129">
       <r>  -18.1585    1.0000 </r>
       <r>  -11.0779    1.0000 </r>
       <r>   -9.5590    1.0000 </r>
       <r>   -5.7709    1.0000 </r>
       <r>    2.6350    0.0000 </r>
       <r>    5.7428    0.0000 </r>
       <r>    6.8066    0.0000 </r>
       <r>    7.7470    0.0000 </r>
      </set>
      <set comment="kpoint 130">
       <r>  -18.3861    1.0000 </r>
       <r>  -10.8065    1.0000 </r>
       <r>   -9.3085    1.0000 </r>
       <r>   -6.0246    1.0000 </r>
       <r>    2.9851    0.0000 </r>
       <r>    5.4218    0.0000 </r>
       <r>    6.5032    0.0000 </r>
       <r>    7.4227    0.0000 </r>
      </set>
      <set comment="kpoint 131">
       <r>  -18.6060    1.0000 </r>
       <r>  -10.5295    1.0000 </r>
       <r>   -9.0552    1.0000 </r>
       <r>   -6.2716    1.0000 </r>
       <r>    3.3405    0.0000 </r>
       <r>    5.1129    0.0000 </r>
       <r>    6.2078    0.0000 </r>
       <r>    7.1107    0.0000 </r>
      </set>
      <set comment="kpoint 132">
       <r>  -18.8179    1.0000 </r>
       <r>  -10.2473    1.0000 </r>
[...]
       </set>
       <set comment="band 5">
        <r>  0.0083  0.0000  0.0000  0.0010  0.0000  0.0000  0.0000  0.0000  0.0000 </r>
        <r>  0.0083  0.0000  0.0000  0.0010  0.0000  0.0000  0.0000  0.0000  0.0000 </r>
       </set>
       <set comment="band 6">
        <r>  0.0000  0.0000  0.0182  0.0000  0.0000  0.0000  0.0000  0.0000  0.0000 </r>
        <r>  0.0000  0.0000  0.0182  0.0000  0.0000  0.0000  0.0000  0.0000  0.0000 </r>
       </set>
       <set comment="band 7">
        <r>  0.0049  0.0001  0.0000  0.0011  0.0000  0.0000  0.0000  0.0000  0.0000 </r>
        <r>  0.0049  0.0001  0.0000  0.0011  0.0000  0.0000  0.0000  0.0000  0.0000 </r>
       </set>
       <set comment="band 8">
        <r>  0.0169  0.0406  0.0000  0.1885  0.0000  0.0000  0.0000  0.0000  0.0000 </r>
        <r>  0.0169  0.0407  0.0000  0.1885  0.0000  0.0000  0.0000  0.0000  0.0000 </r>
       </set>
      </set>
      <set comment="kpoint 146">
       <set comment="band 1">
        <r>  0.3162  0.0000  0.0000  0.0080  0.0000  0.0000  0.0000  0.0000  0.0000 </r>
        <r>  0.3162  0.0000  0.0000  0.0080  0.0000  0.0000  0.0000  0.0000  0.0000 </r>
       </set>
       <set comment="band 2">
        <r>  0.0000  0.0000  0.2173  0.0000  0.0000  0.0000  0.0000  0.0000  0.0000 </r>
        <r>  0.0000  0.0000  0.2173  0.0000  0.0000  0.0000  0.0000  0.0000  0.0000 </r>
       </set>
       <set comment="band 3">
        <r>  0.0377  0.0200  0.0000  0.3441  0.0000  0.0000  0.0000  0.0000  0.0000 </r>
        <r>  0.0377  0.0200  0.0000  0.3441  0.0000  0.0000  0.0000  0.0000  0.0000 </r>
       </set>
       <set comment="band 4">
        <r>  0.0010  0.3772  0.0000  0.0238  0.0000  0.0000  0.0000  0.0000  0.0000 </r>
        <r>  0.0010  0.3772  0.0000  0.0238  0.0000  0.0000  0.0000  0.0000  0.0000 </r>
       </set>
       <set comment="band 5">
        <r>  0.0084  0.0000  0.0000  0.0009  0.0000  0.0000  0.0000  0.0000  0.0000 </r>
        <r>  0.0084  0.0000  0.0000  0.0009  0.0000  0.0000  0.0000  0.0000  0.0000 </r>
       </set>
       <set comment="band 6">
        <r>  0.0000  0.0000  0.0182  0.0000  0.0000  0.0000  0.0000  0.0000  0.0000 </r>
        <r>  0.0000  0.0000  0.0182  0.0000  0.0000  0.0000  0.0000  0.0000  0.0000 </r>
       </set>
       <set comment="band 7">
        <r>  0.0051  0.0001  0.0000  0.0009  0.0000  0.0000  0.0000  0.0000  0.0000 </r>
        <r>  0.0051  0.0001  0.0000  0.0009  0.0000  0.0000  0.0000  0.0000  0.0000 </r>
       </set>
       <set comment="band 8">
        <r>  0.0173  0.0317  0.0000  0.2125  0.0000  0.0000  0.0000  0.0000  0.0000 </r>
        <r>  0.0160  0.0381  0.0000  0.2096  0.0000  0.0000  0.0000  0.0000  0.0000 </r>
       </set>
      </set>
      <set comment="kpoint 147">
       <set comment="band 1">
        <r>  0.3175  0.0000  0.0000  0.0063  0.0000  0.0000  0.0000  0.0000  0.0000 </r>
        <r>  0.3175  0.0000  0.0000  0.0063  0.0000  0.0000  0.0000  0.0000  0.0000 </r>
       </set>
       <set comment="band 2">
        <r>  0.0000  0.0000  0.2169  0.0000  0.0000  0.0000  0.0000  0.0000  0.0000 </r>
        <r>  0.0000  0.0000  0.2169  0.0000  0.0000  0.0000  0.0000  0.0000  0.0000 </r>
       </set>
       <set comment="band 3">
        <r>  0.0310  0.0169  0.0000  0.3555  0.0000  0.0000  0.0000  0.0000  0.0000 </r>
        <r>  0.0310  0.0169  0.0000  0.3555  0.0000  0.0000  0.0000  0.0000  0.0000 </r>
       </set>
       <set comment="band 4">
        <r>  0.0006  0.3838  0.0000  0.0197  0.0000  0.0000  0.0000  0.0000  0.0000 </r>
        <r>  0.0006  0.3838  0.0000  0.0197  0.0000  0.0000  0.0000  0.0000  0.0000 </r>
       </set>
       <set comment="band 5">
        <r>  0.0085  0.0000  0.0000  0.0007  0.0000  0.0000  0.0000  0.0000  0.0000 </r>
        <r>  0.0085  0.0000  0.0000  0.0007  0.0000  0.0000  0.0000  0.0000  0.0000 </r>
       </set>
       <set comment="band 6">
        <r>  0.0000  0.0000  0.0181  0.0000  0.0000  0.0000  0.0000  0.0000  0.0000 </r>
        <r>  0.0000  0.0000  0.0181  0.0000  0.0000  0.0000  0.0000  0.0000  0.0000 </r>
       </set>
       <set comment="band 7">
        <r>  0.0052  0.0000  0.0000  0.0008  0.0000  0.0000  0.0000  0.0000  0.0000 </r>
        <r>  0.0052  0.0000  0.0000  0.0008  0.0000  0.0000  0.0000  0.0000  0.0000 </r>
       </set>
       <set comment="band 8">
        <r>  0.0095  0.0389  0.0001  0.2203  0.0000  0.0000  0.0000  0.0000  0.0000 </r>
        <r>  0.0156  0.0197  0.0001  0.2273  0.0000  0.0000  0.0000  0.0000  0.0000 </r>
       </set>
      </set>
      <set comment="kpoint 148">
       <set comment="band 1">
        <r>  0.3186  0.0000  0.0000  0.0049  0.0000  0.0000  0.0000  0.0000  0.0000 </r>
        <r>  0.3186  0.0000  0.0000  0.0049  0.0000  0.0000  0.0000  0.0000  0.0000 </r>
       </set>
       <set comment="band 2">
        <r>  0.0000  0.0000  0.2166  0.0000  0.0000  0.0000  0.0000  0.0000  0.0000 </r>
        <r>  0.0000  0.0000  0.2166  0.0000  0.0000  0.0000  0.0000  0.0000  0.0000 </r>
       </set>
       <set comment="band 3">
        <r>  0.0247  0.0139  0.0000  0.3665  0.0000  0.0000  0.0000  0.0000  0.0000 </r>
        <r>  0.0247  0.0139  0.0000  0.3665  0.0000  0.0000  0.0000  0.0000  0.0000 </r>
       </set>
       <set comment="band 4">
        <r>  0.0004  0.3899  0.0000  0.0157  0.0000  0.0000  0.0000  0.0000  0.0000 </r>
        <r>  0.0004  0.3899  0.0000  0.0157  0.0000  0.0000  0.0000  0.0000  0.0000 </r>
       </set>
       <set comment="band 5">
        <r>  0.0086  0.0000  0.0000  0.0005  0.0000  0.0000  0.0000  0.0000  0.0000 </r>
        <r>  0.0086  0.0000  0.0000  0.0005  0.0000  0.0000  0.0000  0.0000  0.0000 </r>
       </set>
       <set comment="band 6">
        <r>  0.0000  0.0000  0.0181  0.0000  0.0000  0.0000  0.0000  0.0000  0.0000 </r>
        <r>  0.0000  0.0000  0.0181  0.0000  0.0000  0.0000  0.0000  0.0000  0.0000 </r>
       </set>
       <set comment="band 7">
        <r>  0.0054  0.0000  0.0000  0.0006  0.0000  0.0000  0.0000  0.0000  0.0000 </r>
        <r>  0.0054  0.0000  0.0000  0.0006  0.0000  0.0000  0.0000  0.0000  0.0000 </r>
       </set>
       <set comment="band 8">
        <r>  0.0107  0.0205  0.0000  0.2352  0.0000  0.0000  0.0000  0.0000  0.0000 </r>
        <r>  0.0091  0.0249  0.0000  0.2337  0.0000  0.0000  0.0000  0.0000  0.0000 </r>
       </set>
      </set>
      <set comment="kpoint 149">
       <set comment="band 1">
        <r>  0.3196  0.0000  0.0000  0.0036  0.0000  0.0000  0.0000  0.0000  0.0000 </r>
        <r>  0.3196  0.0000  0.0000  0.0036  0.0000  0.0000  0.0000  0.0000  0.0000 </r>
       </set>
       <set comment="band 2">
        <r>  0.0000  0.0000  0.2163  0.0000  0.0000  0.0000  0.0000  0.0000  0.0000 </r>
        <r>  0.0000  0.0000  0.2163  0.0000  0.0000  0.0000  0.0000  0.0000  0.0000 </r>
       </set>
       <set comment="band 3">
        <r>  0.0188  0.0108  0.0000  0.3770  0.0000  0.0000  0.0000  0.0000  0.0000 </r>
        <r>  0.0188  0.0108  0.0000  0.3770  0.0000  0.0000  0.0000  0.0000  0.0000 </r>
       </set>
       <set comment="band 4">
        <r>  0.0002  0.3954  0.0000  0.0119  0.0000  0.0000  0.0000  0.0000  0.0000 </r>
        <r>  0.0002  0.3954  0.0000  0.0119  0.0000  0.0000  0.0000  0.0000  0.0000 </r>
       </set>
       <set comment="band 5">
        <r>  0.0087  0.0000  0.0000  0.0004  0.0000  0.0000  0.0000  0.0000  0.0000 </r>
        <r>  0.0087  0.0000  0.0000  0.0004  0.0000  0.0000  0.0000  0.0000  0.0000 </r>
       </set>
       <set comment="band 6">
        <r>  0.0000  0.0000  0.0180  0.0000  0.0000  0.0000  0.0000  0.0000  0.0000 </r>
        <r>  0.0000  0.0000  0.0180  0.0000  0.0000  0.0000  0.0000  0.0000  0.0000 </r>
       </set>
       <set comment="band 7">
        <r>  0.0055  0.0000  0.0000  0.0004  0.0000  0.0000  0.0000  0.0000  0.0000 </r>
        <r>  0.0055  0.0000  0.0000  0.0004  0.0000  0.0000  0.0000  0.0000  0.0000 </r>
       </set>
       <set comment="band 8">
        <r>  0.0070  0.0170  0.0000  0.2434  0.0000  0.0000  0.0000  0.0000  0.0000 </r>
        <r>  0.0070  0.0169  0.0000  0.2435  0.0000  0.0000  0.0000  0.0000  0.0000 </r>
       </set>
      </set>
      <set comment="kpoint 150">
       <set comment="band 1">
        <r>  0.3204  0.0000  0.0000  0.0025  0.0000  0.0000  0.0000  0.0000  0.0000 </r>
        <r>  0.3204  0.0000  0.0000  0.0025  0.0000  0.0000  0.0000  0.0000  0.0000 </r>
       </set>
       <set comment="band 2">
        <r>  0.0000  0.0000  0.2161  0.0000  0.0000  0.0000  0.0000  0.0000  0.0000 </r>
        <r>  0.0000  0.0000  0.2161  0.0000  0.0000  0.0000  0.0000  0.0000  0.0000 </r>
       </set>
       <set comment="band 3">
        <r>  0.0135  0.0080  0.0000  0.3866  0.0000  0.0000  0.0000  0.0000  0.0000 </r>
        <r>  0.0135  0.0080  0.0000  0.3866  0.0000  0.0000  0.0000  0.0000  0.0000 </r>
       </set>
       <set comment="band 4">
        <r>  0.0001  0.4004  0.0000  0.0085  0.0000  0.0000  0.0000  0.0000  0.0000 </r>
        <r>  0.0001  0.4004  0.0000  0.0085  0.0000  0.0000  0.0000  0.0000  0.0000 </r>
       </set>
       <set comment="band 5">
        <r>  0.0088  0.0000  0.0000  0.0003  0.0000  0.0000  0.0000  0.0000  0.0000 </r>
        <r>  0.0088  0.0000  0.0000  0.0003  0.0000  0.0000  0.0000  0.0000  0.0000 </r>
       </set>
       <set comment="band 6">
        <r>  0.0000  0.0000  0.0180  0.0000  0.0000  0.0000  0.0000  0.0000  0.0000 </r>
        <r>  0.0000  0.0000  0.0180  0.0000  0.0000  0.0000  0.0000  0.0000  0.0000 </r>
       </set>
       <set comment="band 7">
        <r>  0.0056  0.0000  0.0000  0.0003  0.0000  0.0000  0.0000  0.0000  0.0000 </r>
        <r>  0.0056  0.0000  0.0000  0.0003  0.0000  0.0000  0.0000  0.0000  0.0000 </r>
       </set>
       <set comment="band 8">
        <r>  0.0050  0.0107  0.0000  0.2501  0.0000  0.0000  0.0000  0.0000  0.0000 </r>
        <r>  0.0043  0.0133  0.0000  0.2486  0.0000  0.0000  0.0000  0.0000  0.0000 </r>
       </set>
      </set>
      <set comment="kpoint 151">
       <set comment="band 1">
        <r>  0.3211  0.0000  0.0000  0.0016  0.0000  0.0000  0.0000  0.0000  0.0000 </r>
        <r>  0.3211  0.0000  0.0000  0.0016  0.0000  0.0000  0.0000  0.0000  0.0000 </r>
       </set>
       <set comment="band 2">
        <r>  0.0000  0.0000  0.2159  0.0000  0.0000  0.0000  0.0000  0.0000  0.0000 </r>
        <r>  0.0000  0.0000  0.2159  0.0000  0.0000  0.0000  0.0000  0.0000  0.0000 </r>
       </set>
       <set comment="band 3">
        <r>  0.0089  0.0053  0.0000  0.3953  0.0000  0.0000  0.0000  0.0000  0.0000 </r>
        <r>  0.0089  0.0053  0.0000  0.3953  0.0000  0.0000  0.0000  0.0000  0.0000 </r>
       </set>
       <set comment="band 4">
        <r>  0.0000  0.4046  0.0000  0.0056  0.0000  0.0000  0.0000  0.0000  0.0000 </r>
        <r>  0.0000  0.4046  0.0000  0.0056  0.0000  0.0000  0.0000  0.0000  0.0000 </r>
       </set>
       <set comment="band 5">
        <r>  0.0089  0.0000  0.0000  0.0002  0.0000  0.0000  0.0000  0.0000  0.0000 </r>
        <r>  0.0089  0.0000  0.0000  0.0002  0.0000  0.0000  0.0000  0.0000  0.0000 </r>
       </set>
       <set comment="band 6">
        <r>  0.0000  0.0000  0.0179  0.0000  0.0000  0.0000  0.0000  0.0000  0.0000 </r>
        <r>  0.0000  0.0000  0.0179  0.0000  0.0000  0.0000  0.0000  0.0000  0.0000 </r>
       </set>
       <set comment="band 7">
        <r>  0.0057  0.0000  0.0000  0.0002  0.0000  0.0000  0.0000  0.0000  0.0000 </r>
        <r>  0.0057  0.0000  0.0000  0.0002  0.0000  0.0000  0.0000  0.0000  0.0000 </r>
       </set>
       <set comment="band 8">
        <r>  0.0025  0.0097  0.0000  0.2545  0.0000  0.0000  0.0000  0.0000  0.0000 </r>
        <r>  0.0036  0.0060  0.0000  0.2563  0.0000  0.0000  0.0000  0.0000  0.0000 </r>
       </set>
      </set>
      <set comment="kpoint 152">
       <set comment="band 1">
        <r>  0.3216  0.0000  0.0000  0.0009  0.0000  0.0000  0.0000  0.0000  0.0000 </r>
        <r>  0.3216  0.0000  0.0000  0.0009  0.0000  0.0000  0.0000  0.0000  0.0000 </r>
       </set>
       <set comment="band 2">
        <r>  0.0000  0.0000  0.2158  0.0000  0.0000  0.0000  0.0000  0.0000  0.0000 </r>
        <r>  0.0000  0.0000  0.2158  0.0000  0.0000  0.0000  0.0000  0.0000  0.0000 </r>
       </set>
       <set comment="band 3">
        <r>  0.0051  0.0031  0.0000  0.4024  0.0000  0.0000  0.0000  0.0000  0.0000 </r>
        <r>  0.0051  0.0031  0.0000  0.4024  0.0000  0.0000  0.0000  0.0000  0.0000 </r>
       </set>
       <set comment="band 4">
        <r>  0.0000  0.4079  0.0000  0.0032  0.0000  0.0000  0.0000  0.0000  0.0000 </r>
        <r>  0.0000  0.4079  0.0000  0.0032  0.0000  0.0000  0.0000  0.0000  0.0000 </r>
       </set>
       <set comment="band 5">
        <r>  0.0090  0.0000  0.0000  0.0001  0.0000  0.0000  0.0000  0.0000  0.0000 </r>
        <r>  0.0090  0.0000  0.0000  0.0001  0.0000  0.0000  0.0000  0.0000  0.0000 </r>
       </set>
       <set comment="band 6">
        <r>  0.0000  0.0000  0.0179  0.0000  0.0000  0.0000  0.0000  0.0000  0.0000 </r>
        <r>  0.0000  0.0000  0.0179  0.0000  0.0000  0.0000  0.0000  0.0000  0.0000 </r>
       </set>
       <set comment="band 7">
        <r>  0.0058  0.0000  0.0000  0.0001  0.0000  0.0000  0.0000  0.0000  0.0000 </r>
        <r>  0.0058  0.0000  0.0000  0.0001  0.0000  0.0000  0.0000  0.0000  0.0000 </r>
       </set>
       <set comment="band 8">
        <r>  0.0000  0.0000  0.0263  0.0000  0.0000  0.0000  0.0000  0.0000  0.0000 </r>
        <r>  0.0000  0.0000  0.0263  0.0000  0.0000  0.0000  0.0000  0.0000  0.0000 </r>
       </set>
      </set>
      <set comment="kpoint 153">
       <set comment="band 1">
        <r>  0.3220  0.0000  0.0000  0.0004  0.0000  0.0000  0.0000  0.0000  0.0000 </r>
        <r>  0.3220  0.0000  0.0000  0.0004  0.0000  0.0000  0.0000  0.0000  0.0000 </r>
       </set>
       <set comment="band 2">
        <r>  0.0000  0.0000  0.2157  0.0000  0.0000  0.0000  0.0000  0.0000  0.0000 </r>
        <r>  0.0000  0.0000  0.2157  0.0000  0.0000  0.0000  0.0000  0.0000  0.0000 </r>
       </set>
       <set comment="band 3">
        <r>  0.0023  0.0014  0.0000  0.4079  0.0000  0.0000  0.0000  0.0000  0.0000 </r>
        <r>  0.0023  0.0014  0.0000  0.4079  0.0000  0.0000  0.0000  0.0000  0.0000 </r>
       </set>
       <set comment="band 4">
        <r>  0.0000  0.4104  0.0000  0.0015  0.0000  0.0000  0.0000  0.0000  0.0000 </r>
        <r>  0.0000  0.4104  0.0000  0.0015  0.0000  0.0000  0.0000  0.0000  0.0000 </r>
       </set>
       <set comment="band 5">
        <r>  0.0090  0.0000  0.0000  0.0000  0.0000  0.0000  0.0000  0.0000  0.0000 </r>
        <r>  0.0090  0.0000  0.0000  0.0000  0.0000  0.0000  0.0000  0.0000  0.0000 </r>
       </set>
       <set comment="band 6">
        <r>  0.0000  0.0000  0.0179  0.0000  0.0000  0.0000  0.0000  0.0000  0.0000 </r>
        <r>  0.0000  0.0000  0.0179  0.0000  0.0000  0.0000  0.0000  0.0000  0.0000 </r>
       </set>
       <set comment="band 7">
        <r>  0.0058  0.0000  0.0000  0.0001  0.0000  0.0000  0.0000  0.0000  0.0000 </r>
        <r>  0.0058  0.0000  0.0000  0.0001  0.0000  0.0000  0.0000  0.0000  0.0000 </r>
       </set>
       <set comment="band 8">
        <r>  0.0000  0.0000  0.0263  0.0000  0.0000  0.0000  0.0000  0.0000  0.0000 </r>
        <r>  0.0000  0.0000  0.0263  0.0000  0.0000  0.0000  0.0000  0.0000  0.0000 </r>
       </set>
      </set>
      <set comment="kpoint 154">
       <set comment="band 1">
        <r>  0.3222  0.0000  0.0000  0.0001  0.0000  0.0000  0.0000  0.0000  0.0000 </r>
        <r>  0.3222  0.0000  0.0000  0.0001  0.0000  0.0000  0.0000  0.0000  0.0000 </r>
       </set>
       <set comment="band 2">
        <r>  0.0000  0.0000  0.2157  0.0000  0.0000  0.0000  0.0000  0.0000  0.0000 </r>
        <r>  0.0000  0.0000  0.2157  0.0000  0.0000  0.0000  0.0000  0.0000  0.0000 </r>
       </set>
       <set comment="band 3">
        <r>  0.0006  0.0004  0.0000  0.4113  0.0000  0.0000  0.0000  0.0000  0.0000 </r>
        <r>  0.0006  0.0004  0.0000  0.4113  0.0000  0.0000  0.0000  0.0000  0.0000 </r>
       </set>
       <set comment="band 4">
        <r>  0.0000  0.4119  0.0000  0.0004  0.0000  0.0000  0.0000  0.0000  0.0000 </r>
        <r>  0.0000  0.4119  0.0000  0.0004  0.0000  0.0000  0.0000  0.0000  0.0000 </r>
       </set>
       <set comment="band 5">
        <r>  0.0090  0.0000  0.0000  0.0000  0.0000  0.0000  0.0000  0.0000  0.0000 </r>
        <r>  0.0090  0.0000  0.0000  0.0000  0.0000  0.0000  0.0000  0.0000  0.0000 </r>
       </set>
       <set comment="band 6">
        <r>  0.0000  0.0000  0.0179  0.0000  0.0000  0.0000  0.0000  0.0000  0.0000 </r>
        <r>  0.0000  0.0000  0.0179  0.0000  0.0000  0.0000  0.0000  0.0000  0.0000 </r>
       </set>
       <set comment="band 7">
        <r>  0.0058  0.0000  0.0000  0.0000  0.0000  0.0000  0.0000  0.0000  0.0000 </r>
        <r>  0.0058  0.0000  0.0000  0.0000  0.0000  0.0000  0.0000  0.0000  0.0000 </r>
       </set>
       <set comment="band 8">
        <r>  0.0000  0.0000  0.0263  0.0000  0.0000  0.0000  0.0000  0.0000  0.0000 </r>
        <r>  0.0000  0.0000  0.0263  0.0000  0.0000  0.0000  0.0000  0.0000  0.0000 </r>
       </set>
      </set>
      <set comment="kpoint 155">
       <set comment="band 1">
        <r>  0.3223  0.0000  0.0000  0.0000  0.0000  0.0000  0.0000  0.0000  0.0000 </r>
        <r>  0.3223  0.0000  0.0000  0.0000  0.0000  0.0000  0.0000  0.0000  0.0000 </r>
       </set>
       <set comment="band 2">
        <r>  0.0000  0.0000  0.2157  0.0000  0.0000  0.0000  0.0000  0.0000  0.0000 </r>
        <r>  0.0000  0.0000  0.2157  0.0000  0.0000  0.0000  0.0000  0.0000  0.0000 </r>
       </set>
       <set comment="band 3">
        <r>  0.0000  0.4124  0.0000  0.0000  0.0000  0.0000  0.0000  0.0000  0.0000 </r>
        <r>  0.0000  0.4124  0.0000  0.0000  0.0000  0.0000  0.0000  0.0000  0.0000 </r>
       </set>
       <set comment="band 4">
        <r>  0.0000  0.0000  0.0000  0.4124  0.0000  0.0000  0.0000  0.0000  0.0000 </r>
        <r>  0.0000  0.0000  0.0000  0.4124  0.0000  0.0000  0.0000  0.0000  0.0000 </r>
       </set>
       <set comment="band 5">
        <r>  0.0090  0.0000  0.0000  0.0000  0.0000  0.0000  0.0000  0.0000  0.0000 </r>
        <r>  0.0090  0.0000  0.0000  0.0000  0.0000  0.0000  0.0000  0.0000  0.0000 </r>
       </set>
       <set comment="band 6">
        <r>  0.0000  0.0000  0.0179  0.0000  0.0000  0.0000  0.0000  0.0000  0.0000 </r>
        <r>  0.0000  0.0000  0.0179  0.0000  0.0000  0.0000  0.0000  0.0000  0.0000 </r>
       </set>
       <set comment="band 7">
        <r>  0.0059  0.0000  0.0000  0.0000  0.0000  0.0000  0.0000  0.0000  0.0000 </r>
        <r>  0.0059  0.0000  0.0000  0.0000  0.0000  0.0000  0.0000  0.0000  0.0000 </r>
       </set>
       <set comment="band 8">
        <r>  0.0000  0.0000  0.0263  0.0000  0.0000  0.0000  0.0000  0.0000  0.0000 </r>
        <r>  0.0000  0.0000  0.0263  0.0000  0.0000  0.0000  0.0000  0.0000  0.0000 </r>
       </set>
      </set>
     </set>
    </set>
   </array>
  </projected>
 </calculation>
 <structure name="finalpos" >
  <crystal>
   <varray name="basis" >
    <v>       1.23440832      -2.13805737       0.00000000 </v>
    <v>       1.23440832       2.13805737       0.00000000 </v>
    <v>       0.00000000       0.00000000      12.00000000 </v>
   </varray>
   <i name="volume">     63.34165937 </i>
   <varray name="rec_basis" >
    <v>       0.40505236      -0.23385715       0.00000000 </v>
    <v>       0.40505236       0.23385715       0.00000000 </v>
    <v>       0.00000000       0.00000000       0.08333333 </v>
   </varray>
  </crystal>
  <varray name="positions" >
   <v>       0.00000000       0.00000000       0.50000000 </v>
   <v>       0.33333300       0.66666700       0.50000000 </v>
  </varray>
 </structure>
</modeling>
