   4   4   0   0
  0.1242933E+02  0.3289000E-09  0.3289002E-09  0.5307000E-09  0.5000000E-15
  1.000000000000000E-004
  CAR 
 unknown system                          
     27.99705964    -19.03688700  301      1.36408735      1.00000000
    -19.037  0.0000E+00  0.0000E+00
    -18.880  0.0000E+00  0.0000E+00
    -18.723  0.0000E+00  0.0000E+00
    -18.567  0.0000E+00  0.0000E+00
    -18.410  0.0000E+00  0.0000E+00
    -18.253  0.0000E+00  0.0000E+00
    -18.096  0.0000E+00  0.0000E+00
    -17.939  0.0000E+00  0.0000E+00
    -17.783  0.0000E+00  0.0000E+00
    -17.626  0.0000E+00  0.0000E+00
    -17.469  0.0000E+00  0.0000E+00
    -17.312  0.0000E+00  0.0000E+00
    -17.156  0.2088E-16  0.3274E-17
    -16.999  0.2521E-06  0.3953E-07
    -16.842  0.4854E-03  0.7614E-04
    -16.685  0.2783E-02  0.5124E-03
    -16.528  0.5289E-02  0.1342E-02
    -16.372  0.9392E-02  0.2814E-02
    -16.215  0.1878E-01  0.5758E-02
    -16.058  0.3527E-01  0.1129E-01
    -15.901  0.1305E-01  0.1333E-01
    -15.745  0.1160E-05  0.1333E-01
    -15.588  0.0000E+00  0.1333E-01
    -15.431  0.0000E+00  0.1333E-01
    -15.274  0.0000E+00  0.1333E-01
    -15.117  0.0000E+00  0.1333E-01
    -14.961  0.0000E+00  0.1333E-01
    -14.804  0.0000E+00  0.1333E-01
    -14.647  0.0000E+00  0.1333E-01
    -14.490  0.0000E+00  0.1333E-01
    -14.333  0.0000E+00  0.1333E-01
    -14.177  0.0000E+00  0.1333E-01
    -14.020  0.0000E+00  0.1333E-01
    -13.863  0.0000E+00  0.1333E-01
    -13.706  0.0000E+00  0.1333E-01
    -13.550  0.0000E+00  0.1333E-01
    -13.393  0.0000E+00  0.1333E-01
    -13.236  0.0000E+00  0.1333E-01
    -13.079  0.0000E+00  0.1333E-01
    -12.922  0.0000E+00  0.1333E-01
    -12.766  0.0000E+00  0.1333E-01
    -12.609  0.0000E+00  0.1333E-01
    -12.452  0.0000E+00  0.1333E-01
    -12.295  0.0000E+00  0.1333E-01
    -12.139  0.0000E+00  0.1333E-01
    -11.982  0.0000E+00  0.1333E-01
    -11.825  0.0000E+00  0.1333E-01
    -11.668  0.0000E+00  0.1333E-01
    -11.511  0.0000E+00  0.1333E-01
    -11.355  0.0000E+00  0.1333E-01
    -11.198  0.0000E+00  0.1333E-01
    -11.041  0.0000E+00  0.1333E-01
    -10.884  0.0000E+00  0.1333E-01
    -10.728  0.0000E+00  0.1333E-01
    -10.571  0.0000E+00  0.1333E-01
    -10.414  0.0000E+00  0.1333E-01
    -10.257  0.0000E+00  0.1333E-01
    -10.100  0.0000E+00  0.1333E-01
     -9.944  0.0000E+00  0.1333E-01
     -9.787  0.0000E+00  0.1333E-01
     -9.630  0.0000E+00  0.1333E-01
     -9.473  0.0000E+00  0.1333E-01
     -9.317  0.0000E+00  0.1333E-01
     -9.160  0.0000E+00  0.1333E-01
     -9.003  0.0000E+00  0.1333E-01
     -8.846  0.0000E+00  0.1333E-01
     -8.689  0.0000E+00  0.1333E-01
     -8.533  0.0000E+00  0.1333E-01
     -8.376  0.0000E+00  0.1333E-01
     -8.219  0.0000E+00  0.1333E-01
     -8.062  0.0000E+00  0.1333E-01
     -7.906  0.0000E+00  0.1333E-01
     -7.749  0.0000E+00  0.1333E-01
     -7.592  0.0000E+00  0.1333E-01
     -7.435  0.0000E+00  0.1333E-01
     -7.278  0.0000E+00  0.1333E-01
     -7.122  0.0000E+00  0.1333E-01
     -6.965  0.0000E+00  0.1333E-01
     -6.808  0.0000E+00  0.1333E-01
     -6.651  0.0000E+00  0.1333E-01
     -6.495  0.0000E+00  0.1333E-01
     -6.338  0.0000E+00  0.1333E-01
     -6.181  0.0000E+00  0.1333E-01
     -6.024  0.0000E+00  0.1333E-01
     -5.867  0.0000E+00  0.1333E-01
     -5.711  0.0000E+00  0.1333E-01
     -5.554  0.0000E+00  0.1333E-01
     -5.397  0.0000E+00  0.1333E-01
     -5.240  0.4196E-18  0.1333E-01
     -5.083  0.2322E-06  0.1333E-01
     -4.927  0.3897E-02  0.1394E-01
     -4.770  0.3500E-01  0.1943E-01
     -4.613  0.2650E-01  0.2359E-01
     -4.456  0.2552E-01  0.2759E-01
     -4.300  0.4779E-01  0.3508E-01
     -4.143  0.4264E-01  0.4176E-01
     -3.986  0.3685E-01  0.4754E-01
     -3.829  0.2769E-01  0.5188E-01
     -3.672  0.8501E-02  0.5322E-01
     -3.516  0.5576E-02  0.5409E-01
     -3.359  0.4523E-01  0.6118E-01
     -3.202  0.7043E-01  0.7222E-01
     -3.045  0.3845E-01  0.7825E-01
     -2.889  0.1317E-01  0.8032E-01
     -2.732  0.6211E-02  0.8129E-01
     -2.575  0.1433E-01  0.8354E-01
     -2.418  0.1357E-01  0.8566E-01
     -2.261  0.1129E-01  0.8743E-01
     -2.105  0.7353E-02  0.8859E-01
     -1.948  0.6782E-02  0.8965E-01
     -1.791  0.8260E-02  0.9095E-01
     -1.634  0.4833E-02  0.9170E-01
     -1.478  0.9974E-02  0.9327E-01
     -1.321  0.9195E-02  0.9471E-01
     -1.164  0.6166E-02  0.9567E-01
     -1.007  0.1507E-01  0.9804E-01
     -0.850  0.6852E-02  0.9911E-01
     -0.694  0.7265E-02  0.1003E+00
     -0.537  0.1883E-01  0.1032E+00
     -0.380  0.1085E-01  0.1049E+00
     -0.223  0.1254E-01  0.1069E+00
     -0.067  0.1416E-01  0.1091E+00
      0.090  0.2284E-01  0.1127E+00
      0.247  0.1416E-01  0.1149E+00
      0.404  0.1095E-01  0.1166E+00
      0.561  0.8368E-02  0.1179E+00
      0.717  0.6538E-02  0.1189E+00
      0.874  0.4059E-02  0.1196E+00
      1.031  0.2432E-02  0.1200E+00
      1.188  0.2296E-03  0.1200E+00
      1.344  0.2590E-07  0.1200E+00
      1.501  0.0000E+00  0.1200E+00
      1.658  0.1181E-09  0.1200E+00
      1.815  0.4031E-04  0.1200E+00
      1.972  0.6469E-04  0.1200E+00
      2.128  0.1830E-08  0.1200E+00
      2.285  0.0000E+00  0.1200E+00
      2.442  0.3372E-13  0.1200E+00
      2.599  0.1121E-04  0.1200E+00
      2.756  0.8132E-03  0.1201E+00
      2.912  0.1552E-04  0.1201E+00
      3.069  0.2093E-06  0.1201E+00
      3.226  0.1009E-02  0.1203E+00
      3.383  0.2506E-03  0.1203E+00
      3.539  0.7776E-05  0.1203E+00
      3.696  0.6132E-03  0.1204E+00
      3.853  0.6397E-04  0.1205E+00
      4.010  0.1907E-02  0.1208E+00
      4.167  0.1637E-03  0.1208E+00
      4.323  0.2430E-02  0.1212E+00
      4.480  0.6436E-04  0.1212E+00
      4.637  0.8359E-12  0.1212E+00
      4.794  0.5477E-04  0.1212E+00
      4.950  0.2398E-02  0.1216E+00
      5.107  0.3388E-02  0.1221E+00
      5.264  0.8381E-03  0.1222E+00
      5.421  0.2197E-02  0.1226E+00
      5.578  0.7839E-03  0.1227E+00
      5.734  0.1899E-02  0.1230E+00
      5.891  0.1516E-02  0.1232E+00
      6.048  0.1787E-02  0.1235E+00
      6.205  0.2432E-02  0.1239E+00
      6.361  0.5989E-02  0.1248E+00
      6.518  0.4208E-02  0.1255E+00
      6.675  0.2385E-02  0.1259E+00
      6.832  0.4565E-02  0.1266E+00
      6.989  0.2920E-02  0.1270E+00
      7.145  0.2788E-02  0.1275E+00
      7.302  0.3714E-02  0.1280E+00
      7.459  0.2947E-02  0.1285E+00
      7.616  0.5437E-02  0.1294E+00
      7.772  0.2985E-02  0.1298E+00
      7.929  0.3938E-02  0.1304E+00
      8.086  0.4025E-02  0.1311E+00
      8.243  0.3477E-02  0.1316E+00
      8.400  0.1706E-02  0.1319E+00
      8.556  0.3559E-02  0.1324E+00
      8.713  0.5047E-02  0.1332E+00
      8.870  0.2036E-02  0.1336E+00
      9.027  0.5810E-02  0.1345E+00
      9.183  0.3982E-02  0.1351E+00
      9.340  0.7322E-02  0.1362E+00
      9.497  0.7195E-02  0.1374E+00
      9.654  0.2033E-01  0.1406E+00
      9.811  0.9636E-02  0.1421E+00
      9.967  0.5380E-02  0.1429E+00
     10.124  0.4502E-02  0.1436E+00
     10.281  0.1632E-02  0.1439E+00
     10.438  0.7617E-02  0.1451E+00
     10.594  0.3592E-02  0.1456E+00
     10.751  0.1890E-06  0.1456E+00
     10.908  0.7238E-03  0.1457E+00
     11.065  0.6468E-02  0.1468E+00
     11.222  0.1837E-02  0.1470E+00
     11.378  0.3360E-02  0.1476E+00
     11.535  0.3568E-02  0.1481E+00
     11.692  0.9032E-02  0.1495E+00
     11.849  0.8088E-02  0.1508E+00
     12.006  0.3462E-02  0.1514E+00
     12.162  0.6369E-02  0.1524E+00
     12.319  0.7050E-02  0.1535E+00
     12.476  0.2262E-02  0.1538E+00
     12.633  0.3009E-02  0.1543E+00
     12.789  0.4399E-02  0.1550E+00
     12.946  0.4823E-02  0.1557E+00
     13.103  0.1039E-01  0.1574E+00
     13.260  0.4021E-02  0.1580E+00
     13.417  0.2503E-02  0.1584E+00
     13.573  0.6501E-02  0.1594E+00
     13.730  0.6911E-02  0.1605E+00
     13.887  0.4375E-02  0.1612E+00
     14.044  0.5712E-02  0.1621E+00
     14.200  0.8460E-02  0.1634E+00
     14.357  0.6175E-02  0.1644E+00
     14.514  0.8660E-02  0.1657E+00
     14.671  0.4827E-02  0.1665E+00
     14.828  0.5533E-02  0.1673E+00
     14.984  0.6760E-02  0.1684E+00
     15.141  0.9992E-02  0.1700E+00
     15.298  0.7405E-02  0.1711E+00
     15.455  0.2979E-02  0.1716E+00
     15.611  0.3189E-02  0.1721E+00
     15.768  0.3189E-02  0.1726E+00
     15.925  0.2827E-02  0.1730E+00
     16.082  0.4328E-02  0.1737E+00
     16.239  0.1285E-02  0.1739E+00
     16.395  0.3581E-02  0.1745E+00
     16.552  0.5816E-02  0.1754E+00
     16.709  0.9143E-02  0.1768E+00
     16.866  0.4698E-02  0.1776E+00
     17.022  0.3595E-02  0.1781E+00
     17.179  0.1949E-02  0.1784E+00
     17.336  0.4243E-03  0.1785E+00
     17.493  0.5496E-02  0.1794E+00
     17.650  0.4909E-03  0.1794E+00
     17.806  0.2731E-02  0.1799E+00
     17.963  0.1004E-02  0.1800E+00
     18.120  0.4807E-02  0.1808E+00
     18.277  0.4718E-02  0.1815E+00
     18.433  0.3675E-02  0.1821E+00
     18.590  0.3441E-02  0.1826E+00
     18.747  0.4421E-02  0.1833E+00
     18.904  0.3114E-02  0.1838E+00
     19.061  0.6299E-04  0.1838E+00
     19.217  0.4181E-02  0.1845E+00
     19.374  0.3917E-02  0.1851E+00
     19.531  0.4309E-02  0.1858E+00
     19.688  0.5195E-02  0.1866E+00
     19.845  0.2135E-02  0.1869E+00
     20.001  0.1020E-02  0.1871E+00
     20.158  0.8333E-03  0.1872E+00
     20.315  0.6284E-03  0.1873E+00
     20.472  0.4291E-02  0.1880E+00
     20.628  0.4130E-02  0.1886E+00
     20.785  0.8211E-02  0.1899E+00
     20.942  0.4552E-02  0.1906E+00
     21.099  0.6291E-02  0.1916E+00
     21.256  0.4526E-02  0.1923E+00
     21.412  0.6731E-02  0.1934E+00
     21.569  0.3302E-02  0.1939E+00
     21.726  0.9317E-02  0.1954E+00
     21.883  0.3827E-02  0.1960E+00
     22.039  0.3558E-02  0.1965E+00
     22.196  0.3461E-02  0.1971E+00
     22.353  0.6185E-02  0.1980E+00
     22.510  0.3303E-02  0.1985E+00
     22.667  0.9411E-02  0.2000E+00
     22.823  0.6630E-02  0.2011E+00
     22.980  0.8466E-02  0.2024E+00
     23.137  0.2534E-02  0.2028E+00
     23.294  0.4226E-02  0.2035E+00
     23.450  0.6592E-02  0.2045E+00
     23.607  0.6409E-02  0.2055E+00
     23.764  0.2951E-02  0.2060E+00
     23.921  0.1042E-01  0.2076E+00
     24.078  0.8872E-02  0.2090E+00
     24.234  0.3675E-02  0.2096E+00
     24.391  0.7538E-02  0.2107E+00
     24.548  0.1822E-02  0.2110E+00
     24.705  0.2638E-02  0.2114E+00
     24.861  0.1367E-02  0.2116E+00
     25.018  0.2775E-02  0.2121E+00
     25.175  0.4147E-03  0.2121E+00
     25.332  0.5428E-03  0.2122E+00
     25.489  0.1536E-02  0.2125E+00
     25.645  0.1418E-02  0.2127E+00
     25.802  0.2556E-02  0.2131E+00
     25.959  0.1505E-02  0.2133E+00
     26.116  0.1545E-05  0.2133E+00
     26.272  0.0000E+00  0.2133E+00
     26.429  0.0000E+00  0.2133E+00
     26.586  0.0000E+00  0.2133E+00
     26.743  0.0000E+00  0.2133E+00
     26.900  0.0000E+00  0.2133E+00
     27.056  0.0000E+00  0.2133E+00
     27.213  0.0000E+00  0.2133E+00
     27.370  0.0000E+00  0.2133E+00
     27.527  0.0000E+00  0.2133E+00
     27.683  0.0000E+00  0.2133E+00
     27.840  0.0000E+00  0.2133E+00
     27.997  0.0000E+00  0.2133E+00
