<?xml version="1.0" encoding="ISO-8859-1"?>
<modeling>
 <generator>
  <i name="program" type="string">vasp </i>
  <i name="version" type="string">5.4.4.18Apr17-6-g9f103f2a35  </i>
  <i name="subversion" type="string">(build Apr 07 2018 02:38:49) complex            parallel </i>
  <i name="platform" type="string">LinuxIFC </i>
  <i name="date" type="string">2018 11 18 </i>
  <i name="time" type="string">15:34:52 </i>
 </generator>
 <incar>
  <i type="int" name="ISTART">     1</i>
  <i type="string" name="PREC">normal       (precision level)</i>
  <i type="logical" name="ADDGRID"> T  </i>
  <i type="int" name="IBRION">     2</i>
  <i name="EDIFF">      0.00000100</i>
  <i name="EDIFFG">     -0.01500000</i>
  <i type="int" name="NSW">   300</i>
  <i type="int" name="ISIF">     3</i>
  <i type="string" name="LREAL"> Auto          (Projection operators: au</i>
  <i type="int" name="ISMEAR">     0</i>
  <i name="SIGMA">      0.05000000</i>
  <i type="logical" name="LWAVE"> T  </i>
  <i type="logical" name="LCHARG"> T  </i>
  <v type="int" name="KPOINT_BSE">    -1     0     0     0</v>
 </incar>
 <structure name="primitive_cell" >
  <crystal>
   <varray name="basis" >
    <v>       3.28900000       0.00000000       0.00000000 </v>
    <v>      -1.64450000       2.84836000       0.00000000 </v>
    <v>       0.00000000       0.00000000       5.30700000 </v>
   </varray>
   <i name="volume">     49.71733480 </i>
   <varray name="rec_basis" >
    <v>       0.30404378       0.17553961       0.00000000 </v>
    <v>       0.00000000       0.35107922       0.00000000 </v>
    <v>       0.00000000       0.00000000       0.18843037 </v>
   </varray>
  </crystal>
  <varray name="positions" >
   <v>      -0.33333300       0.33333300      -0.12023800 </v>
   <v>       0.33333300      -0.33333300       0.00054800 </v>
   <v>      -0.33333300       0.33333300      -0.49945200 </v>
   <v>       0.33333300      -0.33333300       0.37976200 </v>
  </varray>
 </structure>
 <varray name="primitive_index" >
  <v type="int" >        1 </v>
  <v type="int" >        4 </v>
  <v type="int" >        3 </v>
  <v type="int" >        2 </v>
 </varray>
 <kpoints>
  <generation param="Gamma">
   <v type="int" name="divisions">       9        9        5 </v>
   <v name="usershift">      0.00000000       0.00000000       0.00000000 </v>
   <v name="genvec1">      0.11111111       0.00000000       0.00000000 </v>
   <v name="genvec2">      0.00000000       0.11111111       0.00000000 </v>
   <v name="genvec3">      0.00000000       0.00000000       0.20000000 </v>
   <v name="shift">      0.00000000       0.00000000       0.00000000 </v>
  </generation>
  <varray name="kpointlist" >
   <v>       0.00000000       0.00000000       0.00000000 </v>
   <v>       0.11111111       0.00000000       0.00000000 </v>
   <v>       0.22222222       0.00000000       0.00000000 </v>
   <v>       0.33333333       0.00000000       0.00000000 </v>
   <v>       0.44444444       0.00000000       0.00000000 </v>
   <v>       0.11111111       0.11111111       0.00000000 </v>
   <v>       0.22222222       0.11111111       0.00000000 </v>
   <v>       0.33333333       0.11111111       0.00000000 </v>
   <v>       0.44444444       0.11111111       0.00000000 </v>
   <v>       0.22222222       0.22222222       0.00000000 </v>
   <v>       0.33333333       0.22222222       0.00000000 </v>
   <v>       0.33333333       0.33333333       0.00000000 </v>
   <v>       0.00000000       0.00000000       0.20000000 </v>
   <v>       0.11111111       0.00000000       0.20000000 </v>
   <v>       0.22222222       0.00000000       0.20000000 </v>
   <v>       0.33333333       0.00000000       0.20000000 </v>
   <v>       0.44444444       0.00000000       0.20000000 </v>
   <v>       0.11111111       0.11111111       0.20000000 </v>
   <v>       0.22222222       0.11111111       0.20000000 </v>
   <v>       0.33333333       0.11111111       0.20000000 </v>
   <v>       0.44444444       0.11111111       0.20000000 </v>
   <v>       0.22222222       0.22222222       0.20000000 </v>
   <v>       0.33333333       0.22222222       0.20000000 </v>
   <v>       0.33333333       0.33333333       0.20000000 </v>
   <v>       0.00000000       0.00000000       0.40000000 </v>
   <v>       0.11111111       0.00000000       0.40000000 </v>
   <v>       0.22222222       0.00000000       0.40000000 </v>
   <v>       0.33333333       0.00000000       0.40000000 </v>
   <v>       0.44444444       0.00000000       0.40000000 </v>
   <v>       0.11111111       0.11111111       0.40000000 </v>
   <v>       0.22222222       0.11111111       0.40000000 </v>
   <v>       0.33333333       0.11111111       0.40000000 </v>
   <v>       0.44444444       0.11111111       0.40000000 </v>
   <v>       0.22222222       0.22222222       0.40000000 </v>
   <v>       0.33333333       0.22222222       0.40000000 </v>
   <v>       0.33333333       0.33333333       0.40000000 </v>
  </varray>
  <varray name="weights" >
   <v>       0.00246914 </v>
   <v>       0.01481481 </v>
   <v>       0.01481481 </v>
   <v>       0.01481481 </v>
   <v>       0.01481481 </v>
   <v>       0.01481481 </v>
   <v>       0.02962963 </v>
   <v>       0.02962963 </v>
   <v>       0.01481481 </v>
   <v>       0.01481481 </v>
   <v>       0.02962963 </v>
   <v>       0.00493827 </v>
   <v>       0.00493827 </v>
   <v>       0.02962963 </v>
   <v>       0.02962963 </v>
   <v>       0.02962963 </v>
   <v>       0.02962963 </v>
   <v>       0.02962963 </v>
   <v>       0.05925926 </v>
   <v>       0.05925926 </v>
   <v>       0.02962963 </v>
   <v>       0.02962963 </v>
   <v>       0.05925926 </v>
   <v>       0.00987654 </v>
   <v>       0.00493827 </v>
   <v>       0.02962963 </v>
   <v>       0.02962963 </v>
   <v>       0.02962963 </v>
   <v>       0.02962963 </v>
   <v>       0.02962963 </v>
   <v>       0.05925926 </v>
   <v>       0.05925926 </v>
   <v>       0.02962963 </v>
   <v>       0.02962963 </v>
   <v>       0.05925926 </v>
   <v>       0.00987654 </v>
  </varray>
 </kpoints>
 <parameters>
  <separator name="general" >
   <i type="string" name="SYSTEM">unknown system</i>
   <i type="logical" name="LCOMPAT"> F  </i>
  </separator>
  <separator name="electronic" >
   <i type="string" name="PREC">normal</i>
   <i name="ENMAX">    400.00000000</i>
   <i name="ENAUG">    605.39200000</i>
   <i name="EDIFF">      0.00000100</i>
   <i type="int" name="IALGO">    38</i>
   <i type="int" name="IWAVPR">    11</i>
   <i type="int" name="NBANDS">    32</i>
   <i name="NELECT">     36.00000000</i>
   <i type="int" name="TURBO">     0</i>
   <i type="int" name="IRESTART">     0</i>
   <i type="int" name="NREBOOT">     0</i>
   <i type="int" name="NMIN">     0</i>
   <i name="EREF">      0.00000000</i>
   <separator name="electronic smearing" >
    <i type="int" name="ISMEAR">     0</i>
    <i name="SIGMA">      0.05000000</i>
    <i name="KSPACING">      0.50000000</i>
    <i type="logical" name="KGAMMA"> T  </i>
   </separator>
   <separator name="electronic projectors" >
    <i type="logical" name="LREAL"> T  </i>
    <v name="ROPT">     -0.00050000     -0.00050000</v>
    <i type="int" name="LMAXPAW">  -100</i>
    <i type="int" name="LMAXMIX">     2</i>
    <i type="logical" name="NLSPLINE"> F  </i>
   </separator>
   <separator name="electronic startup" >
    <i type="int" name="ISTART">     0</i>
    <i type="int" name="ICHARG">     2</i>
    <i type="int" name="INIWAV">     1</i>
   </separator>
   <separator name="electronic spin" >
    <i type="int" name="ISPIN">     1</i>
    <i type="logical" name="LNONCOLLINEAR"> F  </i>
    <v name="MAGMOM">      1.00000000      1.00000000      1.00000000      1.00000000</v>
    <i name="NUPDOWN">     -1.00000000</i>
    <i type="logical" name="LSORBIT"> F  </i>
    <v name="SAXIS">      0.00000000      0.00000000      1.00000000</v>
    <i type="logical" name="LSPIRAL"> F  </i>
    <v name="QSPIRAL">      0.00000000      0.00000000      0.00000000</v>
    <i type="logical" name="LZEROZ"> F  </i>
   </separator>
   <separator name="electronic exchange-correlation" >
    <i type="logical" name="LASPH"> F  </i>
    <i type="logical" name="LMETAGGA"> F  </i>
   </separator>
   <separator name="electronic convergence" >
    <i type="int" name="NELM">    60</i>
    <i type="int" name="NELMDL">     0</i>
    <i type="int" name="NELMIN">     2</i>
    <i name="ENINI">    400.00000000</i>
    <separator name="electronic convergence detail" >
     <i type="logical" name="LDIAG"> T  </i>
     <i type="logical" name="LSUBROT"> F  </i>
     <i name="WEIMIN">      0.00100000</i>
     <i name="EBREAK">      0.00000001</i>
     <i name="DEPER">      0.30000000</i>
     <i type="int" name="NRMM">     4</i>
     <i name="TIME">      0.40000000</i>
    </separator>
   </separator>
   <separator name="electronic mixer" >
    <i name="AMIX">      0.40000000</i>
    <i name="BMIX">      1.00000000</i>
    <i name="AMIN">      0.10000000</i>
    <i name="AMIX_MAG">      1.60000000</i>
    <i name="BMIX_MAG">      1.00000000</i>
    <separator name="electronic mixer details" >
     <i type="int" name="IMIX">     4</i>
     <i type="logical" name="MIXFIRST"> F  </i>
     <i type="int" name="MAXMIX">   -45</i>
     <i name="WC">    100.00000000</i>
     <i type="int" name="INIMIX">     1</i>
     <i type="int" name="MIXPRE">     1</i>
     <i type="int" name="MREMOVE">     5</i>
    </separator>
   </separator>
   <separator name="electronic dipolcorrection" >
    <i type="logical" name="LDIPOL"> F  </i>
    <i type="logical" name="LMONO"> F  </i>
    <i type="int" name="IDIPOL">     0</i>
    <i name="EPSILON">      1.00000000</i>
    <v name="DIPOL">   -100.00000000   -100.00000000   -100.00000000</v>
    <i name="EFIELD">      0.00000000</i>
   </separator>
  </separator>
  <separator name="grids" >
   <i type="int" name="NGX">    16</i>
   <i type="int" name="NGY">    16</i>
   <i type="int" name="NGZ">    28</i>
   <i type="int" name="NGXF">    32</i>
   <i type="int" name="NGYF">    32</i>
   <i type="int" name="NGZF">    56</i>
   <i type="logical" name="ADDGRID"> T  </i>
  </separator>
  <separator name="ionic" >
   <i type="int" name="NSW">   300</i>
   <i type="int" name="IBRION">     2</i>
   <i type="int" name="MDALGO">     0</i>
   <i type="int" name="ISIF">     3</i>
   <i name="PSTRESS">      0.00000000</i>
   <i name="EDIFFG">     -0.01500000</i>
   <i type="int" name="NFREE">     1</i>
   <i name="POTIM">      0.50000000</i>
   <i name="SMASS">     -3.00000000</i>
   <i name="SCALEE">      1.00000000</i>
  </separator>
  <separator name="ionic md" >
   <i name="TEBEG">      0.00010000</i>
   <i name="TEEND">      0.00010000</i>
   <i type="int" name="NBLOCK">     1</i>
   <i type="int" name="KBLOCK">   300</i>
   <i type="int" name="NPACO">   256</i>
   <i name="APACO">     16.00000000</i>
  </separator>
  <separator name="symmetry" >
   <i type="int" name="ISYM">     2</i>
   <i name="SYMPREC">      0.00001000</i>
  </separator>
  <separator name="dos" >
   <i type="int" name="LORBIT">     0</i>
   <v name="RWIGS">     -1.00000000     -1.00000000</v>
   <i type="int" name="NEDOS">   301</i>
   <i name="EMIN">     10.00000000</i>
   <i name="EMAX">    -10.00000000</i>
   <i name="EFERMI">      0.00000000</i>
  </separator>
  <separator name="writing" >
   <i type="int" name="NWRITE">     2</i>
   <i type="logical" name="LWAVE"> T  </i>
   <i type="logical" name="LDOWNSAMPLE"> F  </i>
   <i type="logical" name="LCHARG"> T  </i>
   <i type="logical" name="LPARD"> F  </i>
   <i type="logical" name="LVTOT"> F  </i>
   <i type="logical" name="LVHAR"> F  </i>
   <i type="logical" name="LELF"> F  </i>
   <i type="logical" name="LOPTICS"> F  </i>
   <v name="STM">      0.00000000      0.00000000      0.00000000      0.00000000      0.00000000      0.00000000      0.00000000</v>
  </separator>
  <separator name="performance" >
   <i type="int" name="NPAR">    16</i>
   <i type="int" name="NSIM">     4</i>
   <i type="int" name="NBLK">    -1</i>
   <i type="logical" name="LPLANE"> T  </i>
   <i type="logical" name="LSCALAPACK"> T  </i>
   <i type="logical" name="LSCAAWARE"> F  </i>
   <i type="logical" name="LSCALU"> F  </i>
   <i type="logical" name="LASYNC"> F  </i>
   <i type="logical" name="LORBITALREAL"> F  </i>
  </separator>
  <separator name="miscellaneous" >
   <i type="int" name="IDIOT">     3</i>
   <i type="int" name="ISPECIAL">     0</i>
   <i type="logical" name="LMUSIC"> F  </i>
   <v name="POMASS">     16.00000000     65.39000000</v>
   <v name="DARWINR">      0.00000000      0.00000000</v>
   <v name="DARWINV">      1.00000000      1.00000000</v>
   <i type="logical" name="LCORR"> T  </i>
  </separator>
  <i type="logical" name="GGA_COMPAT"> T  </i>
  <i type="logical" name="LBERRY"> F  </i>
  <i type="int" name="ICORELEVEL">     0</i>
  <i type="logical" name="LDAU"> F  </i>
  <i type="int" name="I_CONSTRAINED_M">     0</i>
  <separator name="electronic exchange-correlation" >
   <i type="string" name="GGA">--</i>
   <i type="int" name="VOSKOWN">     0</i>
   <i type="logical" name="LHFCALC"> F  </i>
   <i type="string" name="PRECFOCK"></i>
   <i type="logical" name="LSYMGRAD"> F  </i>
   <i type="logical" name="LHFONE"> F  </i>
   <i type="logical" name="LRHFCALC"> F  </i>
   <i type="logical" name="LTHOMAS"> F  </i>
   <i type="logical" name="LMODELHF"> F  </i>
   <i name="ENCUT4O">     -1.00000000</i>
   <i type="int" name="EXXOEP">     0</i>
   <i type="int" name="FOURORBIT">     0</i>
   <i name="AEXX">      0.00000000</i>
   <i name="HFALPHA">      0.00000000</i>
   <i name="MCALPHA">      0.00000000</i>
   <i name="ALDAX">      1.00000000</i>
   <i name="AGGAX">      1.00000000</i>
   <i name="ALDAC">      1.00000000</i>
   <i name="AGGAC">      1.00000000</i>
   <i type="int" name="NKREDX">     1</i>
   <i type="int" name="NKREDY">     1</i>
   <i type="int" name="NKREDZ">     1</i>
   <i type="logical" name="SHIFTRED"> F  </i>
   <i type="logical" name="ODDONLY"> F  </i>
   <i type="logical" name="EVENONLY"> F  </i>
   <i type="int" name="LMAXFOCK">     0</i>
   <i type="int" name="NMAXFOCKAE">     0</i>
   <i type="logical" name="LFOCKAEDFT"> F  </i>
   <i name="HFSCREEN">      0.00000000</i>
   <i name="HFSCREENC">      0.00000000</i>
   <i type="int" name="NBANDSGWLOW">     0</i>
  </separator>
  <separator name="vdW DFT" >
   <i type="logical" name="LUSE_VDW"> F  </i>
   <i name="Zab_VDW">     -0.84910000</i>
   <i name="PARAM1">      0.12340000</i>
   <i name="PARAM2">      1.00000000</i>
   <i name="PARAM3">      0.00000000</i>
  </separator>
  <separator name="model GW" >
   <i type="int" name="MODEL_GW">     0</i>
   <i name="MODEL_EPS0">      7.45760022</i>
   <i name="MODEL_ALPHA">      1.00000000</i>
  </separator>
  <separator name="linear response parameters" >
   <i type="logical" name="LEPSILON"> F  </i>
   <i type="logical" name="LRPA"> F  </i>
   <i type="logical" name="LNABLA"> F  </i>
   <i type="logical" name="LVEL"> F  </i>
   <i type="int" name="KINTER">     0</i>
   <i name="CSHIFT">      0.10000000</i>
   <i name="OMEGAMAX">     -1.00000000</i>
   <i name="DEG_THRESHOLD">      0.00200000</i>
   <i name="RTIME">     -0.10000000</i>
   <i name="WPLASMAI">      0.00000000</i>
   <v name="DFIELD">      0.00000000      0.00000000      0.00000000</v>
   <v name="WPLASMA">      0.00000000      0.00000000      0.00000000      0.00000000      0.00000000      0.00000000      0.00000000      0.00000000      0.00000000</v>
  </separator>
  <separator name="orbital magnetization" >
   <i type="logical" name="NUCIND"> F  </i>
   <v name="MAGPOS">      0.00000000      0.00000000      0.00000000</v>
   <i type="logical" name="LNICSALL"> T  </i>
   <i type="logical" name="ORBITALMAG"> F  </i>
   <i type="logical" name="LMAGBLOCH"> F  </i>
   <i type="logical" name="LCHIMAG"> F  </i>
   <i type="logical" name="LGAUGE"> T  </i>
   <i type="int" name="MAGATOM">     0</i>
   <v name="MAGDIPOL">      0.00000000      0.00000000      0.00000000</v>
   <v name="AVECCONST">      0.00000000      0.00000000      0.00000000</v>
  </separator>
  <separator name="response functions" >
   <i type="logical" name="LADDER"> F  </i>
   <i type="logical" name="LRPAFORCE"> F  </i>
   <i type="logical" name="LFXC"> F  </i>
   <i type="logical" name="LHARTREE"> T  </i>
   <i type="int" name="IBSE">     0</i>
   <v type="int" name="KPOINT">    -1     0     0     0</v>
   <i type="logical" name="LTCTE"> F  </i>
   <i type="logical" name="LTETE"> F  </i>
   <i type="logical" name="LTRIPLET"> F  </i>
   <i type="logical" name="LFXCEPS"> F  </i>
   <i type="logical" name="LFXHEG"> F  </i>
   <i type="int" name="NATURALO">     2</i>
   <i type="logical" name="L2ORDER"> F  </i>
   <i type="logical" name="LMP2LT"> F  </i>
   <i type="logical" name="LUSEW"> F  </i>
   <i name="ENCUTGW">     -2.00000000</i>
   <i name="ENCUTGWSOFT">     -2.00000000</i>
   <i name="ENCUTLF">     -1.00000000</i>
   <i type="int" name="LMAXMP2">    -1</i>
   <i name="SCISSOR">      0.00000000</i>
   <i type="int" name="NOMEGA">     0</i>
   <i type="int" name="NOMEGAR">     0</i>
   <i type="int" name="NBANDSGW">    -1</i>
   <i type="int" name="NBANDSO">    -1</i>
   <i type="int" name="NBANDSV">    -1</i>
   <i type="int" name="NELM">     1</i>
   <i type="int" name="NELMHF">     1</i>
   <i type="int" name="DIM">     3</i>
   <i type="int" name="ANTIRES">     0</i>
   <i name="OMEGAMAX">    -30.00000000</i>
   <i name="OMEGAMIN">    -30.00000000</i>
   <i name="OMEGATL">   -200.00000000</i>
   <i type="int" name="OMEGAGRID">   140</i>
   <i name="CSHIFT">     -0.10000000</i>
   <i type="logical" name="SELFENERGY"> F  </i>
   <i type="logical" name="LSPECTRAL"> F  </i>
   <i type="logical" name="LSPECTRALGW"> F  </i>
   <i type="logical" name="LSINGLES"> F  </i>
   <i type="logical" name="LFERMIGW"> F  </i>
   <i type="logical" name="ODDONLYGW"> F  </i>
   <i type="logical" name="EVENONLYGW"> F  </i>
   <i type="int" name="NKREDLFX">     1</i>
   <i type="int" name="NKREDLFY">     1</i>
   <i type="int" name="NKREDLFZ">     1</i>
   <i type="int" name="MAXMEM">  2800</i>
   <i type="int" name="TELESCOPE">     0</i>
   <i type="int" name="TAUPAR">     1</i>
   <i type="int" name="OMEGAPAR">    -1</i>
   <i name="LAMBDA">      1.00000000</i>
  </separator>
  <separator name="External order field" >
   <i name="OFIELD_KAPPA">      0.00000000</i>
   <v name="OFIELD_K">      0.00000000      0.00000000      0.00000000</v>
   <i name="OFIELD_Q6_NEAR">      0.00000000</i>
   <i name="OFIELD_Q6_FAR">      0.00000000</i>
   <i name="OFIELD_A">      0.00000000</i>
  </separator>
 </parameters>
 <atominfo>
  <atoms>       4 </atoms>
  <types>       2 </types>
  <array name="atoms" >
   <dimension dim="1">ion</dimension>
   <field type="string">element</field>
   <field type="int">atomtype</field>
   <set>
    <rc><c>O </c><c>   1</c></rc>
    <rc><c>O </c><c>   1</c></rc>
    <rc><c>Zn</c><c>   2</c></rc>
    <rc><c>Zn</c><c>   2</c></rc>
   </set>
  </array>
  <array name="atomtypes" >
   <dimension dim="1">type</dimension>
   <field type="int">atomspertype</field>
   <field type="string">element</field>
   <field>mass</field>
   <field>valence</field>
   <field type="string">pseudopotential</field>
   <set>
    <rc><c>   2</c><c>O </c><c>     16.00000000</c><c>      6.00000000</c><c> PAW_PBE O 08Apr2002                    </c></rc>
    <rc><c>   2</c><c>Zn</c><c>     65.39000000</c><c>     12.00000000</c><c> PAW_PBE Zn 06Sep2000                   </c></rc>
   </set>
  </array>
 </atominfo>
 <structure name="initialpos" >
  <crystal>
   <varray name="basis" >
    <v>       3.28900000       0.00000000       0.00000000 </v>
    <v>      -1.64450000       2.84836000       0.00000000 </v>
    <v>       0.00000000       0.00000000       5.30700000 </v>
   </varray>
   <i name="volume">     49.71733480 </i>
   <varray name="rec_basis" >
    <v>       0.30404378       0.17553961       0.00000000 </v>
    <v>       0.00000000       0.35107922       0.00000000 </v>
    <v>       0.00000000       0.00000000       0.18843037 </v>
   </varray>
  </crystal>
  <varray name="positions" >
   <v>       0.66666700       0.33333300       0.87976200 </v>
   <v>       0.33333300       0.66666700       0.37976200 </v>
   <v>       0.66666700       0.33333300       0.50054800 </v>
   <v>       0.33333300       0.66666700       0.00054800 </v>
  </varray>
 </structure>
 <calculation>
  <scstep>
   <time name="dav">    0.49    0.49</time>
   <time name="total">    0.51    0.51</time>
   <energy>
    <i name="alphaZ">    224.50030847 </i>
    <i name="ewald">  -2920.10875832 </i>
    <i name="hartreedc">  -1311.51769984 </i>
    <i name="XCdc">    169.29796849 </i>
    <i name="pawpsdc">   3136.89643137 </i>
    <i name="pawaedc">  -3495.73942061 </i>
    <i name="eentropy">     -0.00192316 </i>
    <i name="bandstr">      6.00655527 </i>
    <i name="atom">   4362.69053732 </i>
    <i name="e_fr_energy">    172.02399898 </i>
    <i name="e_wo_entrp">    172.02592214 </i>
    <i name="e_0_energy">    172.02496056 </i>
   </energy>
  </scstep>
  <scstep>
   <time name="dav">    0.63    0.63</time>
   <time name="total">    0.63    0.63</time>
   <energy>
    <i name="e_fr_energy">    -12.19821439 </i>
    <i name="e_wo_entrp">    -12.19821439 </i>
    <i name="e_0_energy">    -12.19821439 </i>
   </energy>
  </scstep>
  <scstep>
   <time name="dav">    0.56    0.56</time>
   <time name="total">    0.56    0.56</time>
   <energy>
    <i name="e_fr_energy">    -21.38505226 </i>
    <i name="e_wo_entrp">    -21.38505226 </i>
    <i name="e_0_energy">    -21.38505226 </i>
   </energy>
  </scstep>
  <scstep>
   <time name="dav">    0.64    0.64</time>
   <time name="total">    0.64    0.64</time>
   <energy>
    <i name="e_fr_energy">    -21.42605109 </i>
    <i name="e_wo_entrp">    -21.42605109 </i>
    <i name="e_0_energy">    -21.42605109 </i>
   </energy>
  </scstep>
  <scstep>
   <time name="dav">    0.59    0.59</time>
   <time name="total">    0.61    0.61</time>
   <energy>
    <i name="e_fr_energy">    -21.42619991 </i>
    <i name="e_wo_entrp">    -21.42619991 </i>
    <i name="e_0_energy">    -21.42619991 </i>
   </energy>
  </scstep>
  <scstep>
   <time name="dav">    0.79    0.79</time>
   <time name="total">    0.82    0.82</time>
   <energy>
    <i name="e_fr_energy">    -18.23998010 </i>
    <i name="e_wo_entrp">    -18.23998010 </i>
    <i name="e_0_energy">    -18.23998010 </i>
   </energy>
  </scstep>
  <scstep>
   <time name="dav">    0.52    0.52</time>
   <time name="total">    0.54    0.55</time>
   <energy>
    <i name="e_fr_energy">    -18.27406131 </i>
    <i name="e_wo_entrp">    -18.27406131 </i>
    <i name="e_0_energy">    -18.27406131 </i>
   </energy>
  </scstep>
  <scstep>
   <time name="dav">    0.56    0.56</time>
   <time name="total">    0.59    0.59</time>
   <energy>
    <i name="e_fr_energy">    -18.25201323 </i>
    <i name="e_wo_entrp">    -18.25201323 </i>
    <i name="e_0_energy">    -18.25201323 </i>
   </energy>
  </scstep>
  <scstep>
   <time name="dav">    0.72    0.72</time>
   <time name="total">    0.74    0.74</time>
   <energy>
    <i name="e_fr_energy">    -18.23873834 </i>
    <i name="e_wo_entrp">    -18.23873834 </i>
    <i name="e_0_energy">    -18.23873834 </i>
   </energy>
  </scstep>
  <scstep>
   <time name="dav">    0.52    0.52</time>
   <time name="total">    0.54    0.54</time>
   <energy>
    <i name="e_fr_energy">    -18.23944074 </i>
    <i name="e_wo_entrp">    -18.23944074 </i>
    <i name="e_0_energy">    -18.23944074 </i>
   </energy>
  </scstep>
  <scstep>
   <time name="dav">    0.57    0.57</time>
   <time name="total">    0.60    0.60</time>
   <energy>
    <i name="e_fr_energy">    -18.23928287 </i>
    <i name="e_wo_entrp">    -18.23928287 </i>
    <i name="e_0_energy">    -18.23928287 </i>
   </energy>
  </scstep>
  <scstep>
   <time name="dav">    0.61    0.61</time>
   <time name="total">    0.63    0.63</time>
   <energy>
    <i name="e_fr_energy">    -18.23928649 </i>
    <i name="e_wo_entrp">    -18.23928649 </i>
    <i name="e_0_energy">    -18.23928649 </i>
   </energy>
  </scstep>
  <scstep>
   <time name="dav">    0.76    0.76</time>
   <time name="total">    0.78    0.79</time>
   <energy>
    <i name="e_fr_energy">    -18.23928546 </i>
    <i name="e_wo_entrp">    -18.23928546 </i>
    <i name="e_0_energy">    -18.23928546 </i>
   </energy>
  </scstep>
  <scstep>
   <time name="dav">    0.48    0.48</time>
   <time name="total">    0.49    0.49</time>
   <energy>
    <i name="alphaZ">    224.50030847 </i>
    <i name="ewald">  -2920.10875832 </i>
    <i name="hartreedc">  -1335.06211337 </i>
    <i name="XCdc">    171.35515269 </i>
    <i name="pawpsdc">   3286.62406603 </i>
    <i name="pawaedc">  -3648.00914070 </i>
    <i name="eentropy">     -0.00000000 </i>
    <i name="bandstr">   -160.22933756 </i>
    <i name="atom">   4362.69053732 </i>
    <i name="e_fr_energy">    -18.23928544 </i>
    <i name="e_wo_entrp">    -18.23928544 </i>
    <i name="e_0_energy">    -18.23928544 </i>
   </energy>
  </scstep>
  <structure>
   <crystal>
    <varray name="basis" >
     <v>       3.28900000       0.00000000       0.00000000 </v>
     <v>      -1.64450000       2.84836000       0.00000000 </v>
     <v>       0.00000000       0.00000000       5.30700000 </v>
    </varray>
    <i name="volume">     49.71733480 </i>
    <varray name="rec_basis" >
     <v>       0.30404378       0.17553961       0.00000000 </v>
     <v>       0.00000000       0.35107922       0.00000000 </v>
     <v>       0.00000000       0.00000000       0.18843037 </v>
    </varray>
   </crystal>
   <varray name="positions" >
    <v>       0.66666700       0.33333300       0.87976200 </v>
    <v>       0.33333300       0.66666700       0.37976200 </v>
    <v>       0.66666700       0.33333300       0.50054800 </v>
    <v>       0.33333300       0.66666700       0.00054800 </v>
   </varray>
  </structure>
  <varray name="forces" >
   <v>       0.00000000      -0.00000000      -0.00319229 </v>
   <v>      -0.00000000       0.00000000      -0.00319229 </v>
   <v>      -0.00000000       0.00000000       0.00319229 </v>
   <v>       0.00000000      -0.00000000       0.00319229 </v>
  </varray>
  <varray name="stress" >
   <v>     -42.69627483       0.00000000      -0.00000000 </v>
   <v>       0.00000000     -42.69634819      -0.00000000 </v>
   <v>       0.00000000      -0.00000000     -42.48007197 </v>
  </varray>
  <energy>
   <i name="e_fr_energy">    -18.23928544 </i>
   <i name="e_wo_entrp">    -18.23928544 </i>
   <i name="e_0_energy">     -0.00000000 </i>
  </energy>
  <time name="totalsc">    9.27    9.28</time>
 </calculation>
 <calculation>
  <scstep>
   <time name="dav">    0.61    0.61</time>
   <time name="total">    0.66    0.67</time>
   <energy>
    <i name="alphaZ">    235.59635908 </i>
    <i name="ewald">  -2967.44914991 </i>
    <i name="hartreedc">  -1356.70240584 </i>
    <i name="XCdc">    174.36000156 </i>
    <i name="pawpsdc">   3286.62969195 </i>
    <i name="pawaedc">  -3648.01587979 </i>
    <i name="eentropy">     -0.00016019 </i>
    <i name="bandstr">   -106.32199014 </i>
    <i name="atom">   4362.69053732 </i>
    <i name="e_fr_energy">    -19.21299595 </i>
    <i name="e_wo_entrp">    -19.21283576 </i>
    <i name="e_0_energy">    -19.21291586 </i>
   </energy>
  </scstep>
  <scstep>
   <time name="dav">    0.59    0.59</time>
   <time name="total">    0.61    0.61</time>
   <energy>
    <i name="e_fr_energy">    -18.33717797 </i>
    <i name="e_wo_entrp">    -18.33717797 </i>
    <i name="e_0_energy">    -18.33717797 </i>
   </energy>
  </scstep>
  <scstep>
   <time name="dav">    0.57    0.57</time>
   <time name="total">    0.59    0.59</time>
   <energy>
    <i name="e_fr_energy">    -18.27229519 </i>
    <i name="e_wo_entrp">    -18.27229519 </i>
    <i name="e_0_energy">    -18.27229519 </i>
   </energy>
  </scstep>
  <scstep>
   <time name="dav">    0.93    0.93</time>
   <time name="total">    0.96    0.96</time>
   <energy>
    <i name="e_fr_energy">    -18.24535597 </i>
    <i name="e_wo_entrp">    -18.24535597 </i>
    <i name="e_0_energy">    -18.24535597 </i>
   </energy>
  </scstep>
  <scstep>
   <time name="dav">    0.50    0.50</time>
   <time name="total">    0.53    0.53</time>
   <energy>
    <i name="e_fr_energy">    -18.24554602 </i>
    <i name="e_wo_entrp">    -18.24554602 </i>
    <i name="e_0_energy">    -18.24554602 </i>
   </energy>
  </scstep>
  <scstep>
   <time name="dav">    0.64    0.65</time>
   <time name="total">    0.67    0.67</time>
   <energy>
    <i name="e_fr_energy">    -18.24554179 </i>
    <i name="e_wo_entrp">    -18.24554179 </i>
    <i name="e_0_energy">    -18.24554179 </i>
   </energy>
  </scstep>
  <scstep>
   <time name="dav">    0.64    0.65</time>
   <time name="total">    0.67    0.67</time>
   <energy>
    <i name="e_fr_energy">    -18.24555301 </i>
    <i name="e_wo_entrp">    -18.24555301 </i>
    <i name="e_0_energy">    -18.24555301 </i>
   </energy>
  </scstep>
  <scstep>
   <time name="dav">    0.56    0.56</time>
   <time name="total">    0.57    0.57</time>
   <energy>
    <i name="alphaZ">    235.59635908 </i>
    <i name="ewald">  -2967.44914991 </i>
    <i name="hartreedc">  -1308.16815881 </i>
    <i name="XCdc">    171.79052811 </i>
    <i name="pawpsdc">   3311.07408881 </i>
    <i name="pawaedc">  -3673.45105293 </i>
    <i name="eentropy">     -0.00000000 </i>
    <i name="bandstr">   -150.32870386 </i>
    <i name="atom">   4362.69053732 </i>
    <i name="e_fr_energy">    -18.24555219 </i>
    <i name="e_wo_entrp">    -18.24555219 </i>
    <i name="e_0_energy">    -18.24555219 </i>
   </energy>
  </scstep>
  <structure>
   <crystal>
    <varray name="basis" >
     <v>       3.23644400       0.00000000      -0.00000000 </v>
     <v>      -1.61822200       2.80284505       0.00000000 </v>
     <v>       0.00000000      -0.00000000       5.22262714 </v>
    </varray>
    <i name="volume">     47.37576185 </i>
    <varray name="rec_basis" >
     <v>       0.30898109       0.17839017       0.00000000 </v>
     <v>       0.00000000       0.35678034       0.00000000 </v>
     <v>       0.00000000       0.00000000       0.19147452 </v>
    </varray>
   </crystal>
   <varray name="positions" >
    <v>       0.66666700       0.33333300       0.87973298 </v>
    <v>       0.33333300       0.66666700       0.37973298 </v>
    <v>       0.66666700       0.33333300       0.50057702 </v>
    <v>       0.33333300       0.66666700       0.00057702 </v>
   </varray>
  </structure>
  <varray name="forces" >
   <v>       0.00000000       0.00000000      -0.00528131 </v>
   <v>      -0.00000000       0.00000000      -0.00528131 </v>
   <v>      -0.00000000      -0.00000000       0.00528131 </v>
   <v>       0.00000000      -0.00000000       0.00528131 </v>
  </varray>
  <varray name="stress" >
   <v>      38.02822030       0.00000000      -0.00000000 </v>
   <v>       0.00000000      38.02828352       0.00000000 </v>
   <v>      -0.00000000      -0.00000000      35.11955883 </v>
  </varray>
  <energy>
   <i name="e_fr_energy">    -18.24555219 </i>
   <i name="e_wo_entrp">    -18.24555219 </i>
   <i name="e_0_energy">     -0.00000000 </i>
  </energy>
  <time name="totalsc">    5.79    5.81</time>
 </calculation>
 <calculation>
  <scstep>
   <time name="dav">    0.61    0.61</time>
   <time name="total">    0.76    0.77</time>
   <energy>
    <i name="alphaZ">    230.59949379 </i>
    <i name="ewald">  -2946.31859367 </i>
    <i name="hartreedc">  -1298.85362848 </i>
    <i name="XCdc">    170.46927554 </i>
    <i name="pawpsdc">   3311.06501440 </i>
    <i name="pawaedc">  -3673.43741742 </i>
    <i name="eentropy">     -0.00000000 </i>
    <i name="bandstr">   -174.65449948 </i>
    <i name="atom">   4362.69053732 </i>
    <i name="e_fr_energy">    -18.43981801 </i>
    <i name="e_wo_entrp">    -18.43981801 </i>
    <i name="e_0_energy">    -18.43981801 </i>
   </energy>
  </scstep>
  <scstep>
   <time name="dav">    0.60    0.60</time>
   <time name="total">    0.63    0.63</time>
   <energy>
    <i name="e_fr_energy">    -18.27699276 </i>
    <i name="e_wo_entrp">    -18.27699276 </i>
    <i name="e_0_energy">    -18.27699276 </i>
   </energy>
  </scstep>
  <scstep>
   <time name="dav">    0.59    0.59</time>
   <time name="total">    0.61    0.61</time>
   <energy>
    <i name="e_fr_energy">    -18.26242986 </i>
    <i name="e_wo_entrp">    -18.26242986 </i>
    <i name="e_0_energy">    -18.26242986 </i>
   </energy>
  </scstep>
  <scstep>
   <time name="dav">    0.74    0.74</time>
   <time name="total">    0.76    0.76</time>
   <energy>
    <i name="e_fr_energy">    -18.25759222 </i>
    <i name="e_wo_entrp">    -18.25759222 </i>
    <i name="e_0_energy">    -18.25759222 </i>
   </energy>
  </scstep>
  <scstep>
   <time name="dav">    0.77    0.77</time>
   <time name="total">    0.79    0.79</time>
   <energy>
    <i name="e_fr_energy">    -18.25735994 </i>
    <i name="e_wo_entrp">    -18.25735994 </i>
    <i name="e_0_energy">    -18.25735994 </i>
   </energy>
  </scstep>
  <scstep>
   <time name="dav">    0.51    0.51</time>
   <time name="total">    0.54    0.54</time>
   <energy>
    <i name="e_fr_energy">    -18.25737071 </i>
    <i name="e_wo_entrp">    -18.25737071 </i>
    <i name="e_0_energy">    -18.25737071 </i>
   </energy>
  </scstep>
  <scstep>
   <time name="dav">    0.56    0.56</time>
   <time name="total">    0.58    0.58</time>
   <energy>
    <i name="e_fr_energy">    -18.25737369 </i>
    <i name="e_wo_entrp">    -18.25737369 </i>
    <i name="e_0_energy">    -18.25737369 </i>
   </energy>
  </scstep>
  <scstep>
   <time name="dav">    0.33    0.33</time>
   <time name="total">    0.34    0.34</time>
   <energy>
    <i name="alphaZ">    230.59949379 </i>
    <i name="ewald">  -2946.31859367 </i>
    <i name="hartreedc">  -1320.13854158 </i>
    <i name="XCdc">    171.59492627 </i>
    <i name="pawpsdc">   3299.86496089 </i>
    <i name="pawaedc">  -3661.78427361 </i>
    <i name="eentropy">     -0.00000000 </i>
    <i name="bandstr">   -154.76588299 </i>
    <i name="atom">   4362.69053732 </i>
    <i name="e_fr_energy">    -18.25737359 </i>
    <i name="e_wo_entrp">    -18.25737359 </i>
    <i name="e_0_energy">    -18.25737359 </i>
   </energy>
  </scstep>
  <structure>
   <crystal>
    <varray name="basis" >
     <v>       3.25969387       0.00000000      -0.00000000 </v>
     <v>      -1.62984694       2.82298008       0.00000000 </v>
     <v>       0.00000000      -0.00000000       5.25995225 </v>
    </varray>
    <i name="volume">     48.40234823 </i>
    <varray name="rec_basis" >
     <v>       0.30677727       0.17711779       0.00000000 </v>
     <v>       0.00000000       0.35423558       0.00000000 </v>
     <v>       0.00000000       0.00000000       0.19011579 </v>
    </varray>
   </crystal>
   <varray name="positions" >
    <v>       0.66666700       0.33333300       0.87974603 </v>
    <v>       0.33333300       0.66666700       0.37974603 </v>
    <v>       0.66666700       0.33333300       0.50056397 </v>
    <v>       0.33333300       0.66666700       0.00056397 </v>
   </varray>
  </structure>
  <varray name="forces" >
   <v>       0.00000000      -0.00000000      -0.00251305 </v>
   <v>      -0.00000000       0.00000000      -0.00251305 </v>
   <v>       0.00000000      -0.00000000       0.00251305 </v>
   <v>      -0.00000000       0.00000000       0.00251305 </v>
  </varray>
  <varray name="stress" >
   <v>       0.31111293       0.00000000       0.00000000 </v>
   <v>       0.00000000       0.31111345       0.00000000 </v>
   <v>       0.00000000       0.00000000      -1.48795564 </v>
  </varray>
  <energy>
   <i name="e_fr_energy">    -18.25737359 </i>
   <i name="e_wo_entrp">    -18.25737359 </i>
   <i name="e_0_energy">     -0.00000000 </i>
  </energy>
  <time name="totalsc">    5.62    5.67</time>
  <eigenvalues>
   <array>
    <dimension dim="1">band</dimension>
    <dimension dim="2">kpoint</dimension>
    <dimension dim="3">spin</dimension>
    <field>eigene</field>
    <field>occ</field>
    <set>
     <set comment="spin 1">
      <set comment="kpoint 1">
       <r>  -16.8990    1.0000 </r>
       <r>  -16.2072    1.0000 </r>
       <r>   -4.5748    1.0000 </r>
       <r>   -4.5747    1.0000 </r>
       <r>   -4.5320    1.0000 </r>
       <r>   -4.4580    1.0000 </r>
       <r>   -4.3877    1.0000 </r>
       <r>   -4.3875    1.0000 </r>
       <r>   -3.4445    1.0000 </r>
       <r>   -3.4445    1.0000 </r>
       <r>   -3.2420    1.0000 </r>
       <r>   -3.2419    1.0000 </r>
       <r>   -2.9679    1.0000 </r>
       <r>    0.2783    1.0000 </r>
       <r>    0.2792    1.0000 </r>
       <r>    0.9685    1.0000 </r>
       <r>    1.0577    1.0000 </r>
       <r>    1.0585    1.0000 </r>
       <r>    1.8253    0.0000 </r>
       <r>    6.2384    0.0000 </r>
       <r>    9.2078    0.0000 </r>
       <r>   13.8897    0.0000 </r>
       <r>   13.8897    0.0000 </r>
       <r>   14.9307    0.0000 </r>
       <r>   15.1286    0.0000 </r>
       <r>   15.1289    0.0000 </r>
       <r>   17.5715    0.0000 </r>
       <r>   19.2088    0.0000 </r>
       <r>   19.2088    0.0000 </r>
       <r>   20.8816    0.0000 </r>
       <r>   20.9066    0.0000 </r>
       <r>   20.9067    0.0000 </r>
      </set>
      <set comment="kpoint 2">
       <r>  -16.8345    1.0000 </r>
       <r>  -16.1771    1.0000 </r>
       <r>   -4.6466    1.0000 </r>
       <r>   -4.5372    1.0000 </r>
       <r>   -4.4924    1.0000 </r>
       <r>   -4.4074    1.0000 </r>
       <r>   -4.3450    1.0000 </r>
       <r>   -4.3333    1.0000 </r>
       <r>   -3.4715    1.0000 </r>
       <r>   -3.4475    1.0000 </r>
       <r>   -3.2363    1.0000 </r>
       <r>   -3.1868    1.0000 </r>
       <r>   -2.9829    1.0000 </r>
       <r>   -0.1584    1.0000 </r>
       <r>    0.1210    1.0000 </r>
       <r>    0.3563    1.0000 </r>
       <r>    0.8912    1.0000 </r>
       <r>    0.9680    1.0000 </r>
       <r>    2.6849    0.0000 </r>
       <r>    6.7364    0.0000 </r>
       <r>    9.2065    0.0000 </r>
       <r>   12.7219    0.0000 </r>
       <r>   14.0045    0.0000 </r>
       <r>   14.2520    0.0000 </r>
       <r>   15.1055    0.0000 </r>
       <r>   15.2649    0.0000 </r>
       <r>   16.9098    0.0000 </r>
       <r>   18.5329    0.0000 </r>
       <r>   19.4309    0.0000 </r>
       <r>   21.1321    0.0000 </r>
       <r>   22.2774    0.0000 </r>
       <r>   22.3373    0.0000 </r>
      </set>
      <set comment="kpoint 3">
       <r>  -16.6608    1.0000 </r>
       <r>  -16.1066    1.0000 </r>
       <r>   -4.7840    1.0000 </r>
       <r>   -4.4766    1.0000 </r>
       <r>   -4.4487    1.0000 </r>
       <r>   -4.3390    1.0000 </r>
       <r>   -4.1829    1.0000 </r>
       <r>   -4.0758    1.0000 </r>
       <r>   -3.5360    1.0000 </r>
       <r>   -3.4337    1.0000 </r>
       <r>   -3.2246    1.0000 </r>
       <r>   -3.0540    1.0000 </r>
       <r>   -2.9856    1.0000 </r>
       <r>   -1.1445    1.0000 </r>
       <r>   -0.4557    1.0000 </r>
       <r>   -0.2835    1.0000 </r>
       <r>    0.6445    1.0000 </r>
       <r>    0.7375    1.0000 </r>
       <r>    3.9518    0.0000 </r>
       <r>    7.7852    0.0000 </r>
       <r>    9.1841    0.0000 </r>
       <r>   11.0310    0.0000 </r>
       <r>   12.8674    0.0000 </r>
       <r>   14.2816    0.0000 </r>
       <r>   14.4825    0.0000 </r>
       <r>   15.2297    0.0000 </r>
       <r>   16.3057    0.0000 </r>
       <r>   18.6250    0.0000 </r>
       <r>   19.2993    0.0000 </r>
       <r>   21.9320    0.0000 </r>
       <r>   23.8827    0.0000 </r>
       <r>   24.5641    0.0000 </r>
      </set>
      <set comment="kpoint 4">
       <r>  -16.4399    1.0000 </r>
       <r>  -16.0429    1.0000 </r>
       <r>   -4.8556    1.0000 </r>
       <r>   -4.5147    1.0000 </r>
       <r>   -4.3681    1.0000 </r>
       <r>   -4.1666    1.0000 </r>
       <r>   -3.9807    1.0000 </r>
       <r>   -3.8510    1.0000 </r>
       <r>   -3.5251    1.0000 </r>
       <r>   -3.3709    1.0000 </r>
       <r>   -3.2110    1.0000 </r>
       <r>   -3.0506    1.0000 </r>
       <r>   -2.7787    1.0000 </r>
       <r>   -2.0698    1.0000 </r>
       <r>   -1.1990    1.0000 </r>
       <r>   -0.7615    1.0000 </r>
       <r>    0.2486    1.0000 </r>
       <r>    0.4592    1.0000 </r>
       <r>    5.2858    0.0000 </r>
       <r>    8.5261    0.0000 </r>
       <r>    8.9773    0.0000 </r>
       <r>    9.8251    0.0000 </r>
       <r>   11.9793    0.0000 </r>
       <r>   13.4760    0.0000 </r>
       <r>   14.3916    0.0000 </r>
       <r>   15.0627    0.0000 </r>
       <r>   16.6983    0.0000 </r>
       <r>   19.2271    0.0000 </r>
       <r>   19.8946    0.0000 </r>
       <r>   20.7587    0.0000 </r>
       <r>   24.3045    0.0000 </r>
       <r>   25.5189    0.0000 </r>
      </set>
      <set comment="kpoint 5">
       <r>  -16.2663    1.0000 </r>
       <r>  -16.0246    1.0000 </r>
       <r>   -4.8056    1.0000 </r>
       <r>   -4.5596    1.0000 </r>
       <r>   -4.3309    1.0000 </r>
       <r>   -3.9800    1.0000 </r>
       <r>   -3.9083    1.0000 </r>
       <r>   -3.8259    1.0000 </r>
       <r>   -3.4162    1.0000 </r>
       <r>   -3.2911    1.0000 </r>
       <r>   -3.1978    1.0000 </r>
       <r>   -3.0522    1.0000 </r>
       <r>   -2.7570    1.0000 </r>
       <r>   -2.3632    1.0000 </r>
       <r>   -1.6774    1.0000 </r>
       <r>   -1.1017    1.0000 </r>
       <r>   -0.1384    1.0000 </r>
       <r>    0.2644    1.0000 </r>
       <r>    6.4902    0.0000 </r>
       <r>    8.1642    0.0000 </r>
       <r>    8.6250    0.0000 </r>
       <r>    9.5053    0.0000 </r>
       <r>   11.6148    0.0000 </r>
       <r>   13.3907    0.0000 </r>
       <r>   14.2142    0.0000 </r>
       <r>   15.1778    0.0000 </r>
       <r>   16.7740    0.0000 </r>
       <r>   19.4008    0.0000 </r>
       <r>   20.0795    0.0000 </r>
       <r>   21.2837    0.0000 </r>
       <r>   23.9978    0.0000 </r>
       <r>   25.4931    0.0000 </r>
      </set>
      <set comment="kpoint 6">
       <r>  -16.7145    1.0000 </r>
       <r>  -16.1271    1.0000 </r>
       <r>   -4.7181    1.0000 </r>
       <r>   -4.5317    1.0000 </r>
       <r>   -4.4349    1.0000 </r>
       <r>   -4.3914    1.0000 </r>
       <r>   -4.2229    1.0000 </r>
       <r>   -4.1563    1.0000 </r>
       <r>   -3.5097    1.0000 </r>
       <r>   -3.4491    1.0000 </r>
       <r>   -3.2293    1.0000 </r>
       <r>   -3.0781    1.0000 </r>
       <r>   -3.0016    1.0000 </r>
       <r>   -0.7350    1.0000 </r>
       <r>   -0.4936    1.0000 </r>
       <r>   -0.0314    1.0000 </r>
       <r>    0.7343    1.0000 </r>
       <r>    0.7651    1.0000 </r>
       <r>    3.6188    0.0000 </r>
       <r>    7.5179    0.0000 </r>
       <r>    9.2117    0.0000 </r>
       <r>   11.5554    0.0000 </r>
       <r>   13.0715    0.0000 </r>
       <r>   14.1782    0.0000 </r>
       <r>   14.4116    0.0000 </r>
       <r>   15.8396    0.0000 </r>
       <r>   16.8800    0.0000 </r>
       <r>   16.8946    0.0000 </r>
       <r>   21.3830    0.0000 </r>
       <r>   21.4960    0.0000 </r>
       <r>   22.9856    0.0000 </r>
       <r>   23.0349    0.0000 </r>
      </set>
      <set comment="kpoint 7">
       <r>  -16.5165    1.0000 </r>
       <r>  -16.0616    1.0000 </r>
       <r>   -4.7846    1.0000 </r>
       <r>   -4.5251    1.0000 </r>
       <r>   -4.3897    1.0000 </r>
       <r>   -4.2655    1.0000 </r>
       <r>   -4.0402    1.0000 </r>
       <r>   -3.9032    1.0000 </r>
       <r>   -3.5541    1.0000 </r>
       <r>   -3.4146    1.0000 </r>
       <r>   -3.2169    1.0000 </r>
       <r>   -3.0467    1.0000 </r>
       <r>   -2.8349    1.0000 </r>
       <r>   -1.6161    1.0000 </r>
       <r>   -1.0964    1.0000 </r>
       <r>   -0.6602    1.0000 </r>
       <r>    0.4157    1.0000 </r>
       <r>    0.4425    1.0000 </r>
       <r>    4.8931    0.0000 </r>
       <r>    8.4130    0.0000 </r>
       <r>    9.2737    0.0000 </r>
       <r>   10.3066    0.0000 </r>
       <r>   12.1674    0.0000 </r>
       <r>   13.2801    0.0000 </r>
       <r>   13.8767    0.0000 </r>
       <r>   15.6949    0.0000 </r>
       <r>   16.6394    0.0000 </r>
       <r>   17.9584    0.0000 </r>
       <r>   21.0484    0.0000 </r>
       <r>   21.9988    0.0000 </r>
       <r>   23.5545    0.0000 </r>
       <r>   24.8438    0.0000 </r>
      </set>
      <set comment="kpoint 8">
       <r>  -16.3138    1.0000 </r>
       <r>  -16.0242    1.0000 </r>
       <r>   -4.7695    1.0000 </r>
       <r>   -4.4904    1.0000 </r>
       <r>   -4.3539    1.0000 </r>
       <r>   -4.0940    1.0000 </r>
       <r>   -3.8752    1.0000 </r>
       <r>   -3.8174    1.0000 </r>
       <r>   -3.4748    1.0000 </r>
       <r>   -3.3674    1.0000 </r>
       <r>   -3.1964    1.0000 </r>
       <r>   -2.9649    1.0000 </r>
       <r>   -2.7999    1.0000 </r>
       <r>   -2.1906    1.0000 </r>
       <r>   -1.5317    1.0000 </r>
       <r>   -1.2502    1.0000 </r>
       <r>   -0.0285    1.0000 </r>
       <r>    0.1629    1.0000 </r>
       <r>    6.2190    0.0000 </r>
       <r>    8.6543    0.0000 </r>
       <r>    8.9590    0.0000 </r>
       <r>    9.5899    0.0000 </r>
       <r>   11.7869    0.0000 </r>
       <r>   13.0047    0.0000 </r>
       <r>   13.5123    0.0000 </r>
       <r>   15.1624    0.0000 </r>
       <r>   16.8595    0.0000 </r>
       <r>   19.2700    0.0000 </r>
       <r>   21.0130    0.0000 </r>
       <r>   21.3884    0.0000 </r>
       <r>   23.9615    0.0000 </r>
       <r>   25.6552    0.0000 </r>
      </set>
      <set comment="kpoint 9">
       <r>  -16.2144    1.0000 </r>
       <r>  -16.0278    1.0000 </r>
       <r>   -4.7315    1.0000 </r>
       <r>   -4.4463    1.0000 </r>
       <r>   -4.3432    1.0000 </r>
       <r>   -4.0009    1.0000 </r>
       <r>   -3.8966    1.0000 </r>
       <r>   -3.7668    1.0000 </r>
       <r>   -3.4201    1.0000 </r>
       <r>   -3.3220    1.0000 </r>
       <r>   -3.1740    1.0000 </r>
       <r>   -3.1315    1.0000 </r>
       <r>   -2.6299    1.0000 </r>
       <r>   -2.3872    1.0000 </r>
       <r>   -1.8183    1.0000 </r>
       <r>   -1.2882    1.0000 </r>
       <r>   -0.3182    1.0000 </r>
       <r>    0.0506    1.0000 </r>
       <r>    7.1053    0.0000 </r>
       <r>    8.2123    0.0000 </r>
       <r>    8.6435    0.0000 </r>
       <r>    9.5072    0.0000 </r>
       <r>   11.5803    0.0000 </r>
       <r>   13.3168    0.0000 </r>
       <r>   13.5673    0.0000 </r>
       <r>   14.7274    0.0000 </r>
       <r>   16.8374    0.0000 </r>
       <r>   19.9844    0.0000 </r>
       <r>   20.8626    0.0000 </r>
       <r>   21.4029    0.0000 </r>
       <r>   23.7625    0.0000 </r>
       <r>   25.8592    0.0000 </r>
      </set>
      <set comment="kpoint 10">
       <r>  -16.3332    1.0000 </r>
       <r>  -16.0245    1.0000 </r>
       <r>   -4.6258    1.0000 </r>
       <r>   -4.5950    1.0000 </r>
       <r>   -4.2776    1.0000 </r>
       <r>   -4.1833    1.0000 </r>
       <r>   -3.8718    1.0000 </r>
       <r>   -3.7688    1.0000 </r>
       <r>   -3.5641    1.0000 </r>
       <r>   -3.4050    1.0000 </r>
       <r>   -3.1950    1.0000 </r>
       <r>   -2.9530    1.0000 </r>
       <r>   -2.7667    1.0000 </r>
       <r>   -1.8326    1.0000 </r>
       <r>   -1.7220    1.0000 </r>
       <r>   -1.3755    1.0000 </r>
       <r>   -0.0175    1.0000 </r>
       <r>    0.0624    1.0000 </r>
       <r>    6.1912    0.0000 </r>
       <r>    8.6761    0.0000 </r>
       <r>    9.6345    0.0000 </r>
       <r>    9.7484    0.0000 </r>
       <r>   11.8946    0.0000 </r>
       <r>   12.5556    0.0000 </r>
       <r>   12.6859    0.0000 </r>
       <r>   15.7628    0.0000 </r>
       <r>   16.3569    0.0000 </r>
       <r>   18.8003    0.0000 </r>
       <r>   22.5426    0.0000 </r>
       <r>   23.1337    0.0000 </r>
       <r>   23.3070    0.0000 </r>
       <r>   24.3504    0.0000 </r>
      </set>
      <set comment="kpoint 11">
       <r>  -16.1814    1.0000 </r>
       <r>  -16.0298    1.0000 </r>
       <r>   -4.6340    1.0000 </r>
       <r>   -4.3641    1.0000 </r>
       <r>   -4.1697    1.0000 </r>
       <r>   -4.1192    1.0000 </r>
       <r>   -3.7793    1.0000 </r>
       <r>   -3.6961    1.0000 </r>
       <r>   -3.4608    1.0000 </r>
       <r>   -3.4323    1.0000 </r>
       <r>   -3.1788    1.0000 </r>
       <r>   -3.1093    1.0000 </r>
       <r>   -2.6894    1.0000 </r>
       <r>   -2.2944    1.0000 </r>
       <r>   -2.1045    1.0000 </r>
       <r>   -1.3239    1.0000 </r>
       <r>   -0.4619    1.0000 </r>
       <r>   -0.2758    1.0000 </r>
       <r>    7.5082    0.0000 </r>
       <r>    8.6848    0.0000 </r>
       <r>    9.0225    0.0000 </r>
       <r>    9.4988    0.0000 </r>
       <r>   11.7222    0.0000 </r>
       <r>   12.2962    0.0000 </r>
       <r>   13.2152    0.0000 </r>
       <r>   14.7298    0.0000 </r>
       <r>   16.0515    0.0000 </r>
       <r>   20.4104    0.0000 </r>
       <r>   22.0697    0.0000 </r>
       <r>   23.2444    0.0000 </r>
       <r>   23.6358    0.0000 </r>
       <r>   24.2507    0.0000 </r>
      </set>
      <set comment="kpoint 12">
       <r>  -16.0814    1.0000 </r>
       <r>  -16.0814    1.0000 </r>
       <r>   -4.6139    1.0000 </r>
       <r>   -4.2205    1.0000 </r>
       <r>   -4.2205    1.0000 </r>
       <r>   -3.8631    1.0000 </r>
       <r>   -3.6048    1.0000 </r>
       <r>   -3.6048    1.0000 </r>
       <r>   -3.5102    1.0000 </r>
       <r>   -3.3823    1.0000 </r>
       <r>   -3.3399    1.0000 </r>
       <r>   -3.3399    1.0000 </r>
       <r>   -2.6355    1.0000 </r>
       <r>   -2.4448    1.0000 </r>
       <r>   -2.4448    1.0000 </r>
       <r>   -0.8290    1.0000 </r>
       <r>   -0.8289    1.0000 </r>
       <r>   -0.6414    1.0000 </r>
       <r>    8.6815    0.0000 </r>
       <r>    8.6816    0.0000 </r>
       <r>    8.7170    0.0000 </r>
       <r>    9.1788    0.0000 </r>
       <r>   11.7480    0.0000 </r>
       <r>   11.7480    0.0000 </r>
       <r>   14.1330    0.0000 </r>
       <r>   14.6666    0.0000 </r>
       <r>   14.6666    0.0000 </r>
       <r>   22.1615    0.0000 </r>
       <r>   22.2330    0.0000 </r>
       <r>   22.2331    0.0000 </r>
       <r>   23.4277    0.0000 </r>
       <r>   25.7835    0.0000 </r>
      </set>
      <set comment="kpoint 13">
       <r>  -16.8356    1.0000 </r>
       <r>  -16.2770    1.0000 </r>
       <r>   -4.6168    1.0000 </r>
       <r>   -4.5979    1.0000 </r>
       <r>   -4.5651    1.0000 </r>
       <r>   -4.5649    1.0000 </r>
       <r>   -4.4148    1.0000 </r>
       <r>   -4.4147    1.0000 </r>
       <r>   -3.4182    1.0000 </r>
       <r>   -3.4182    1.0000 </r>
       <r>   -3.2536    1.0000 </r>
       <r>   -3.2535    1.0000 </r>
       <r>   -2.5402    1.0000 </r>
       <r>    0.2544    1.0000 </r>
       <r>    0.3531    1.0000 </r>
       <r>    0.3540    1.0000 </r>
       <r>    0.9833    1.0000 </r>
       <r>    0.9843    1.0000 </r>
       <r>    2.6646    0.0000 </r>
       <r>    5.9013    0.0000 </r>
       <r>    9.5125    0.0000 </r>
       <r>   13.7274    0.0000 </r>
       <r>   13.9017    0.0000 </r>
       <r>   13.9018    0.0000 </r>
       <r>   14.8676    0.0000 </r>
       <r>   14.8678    0.0000 </r>
       <r>   18.0140    0.0000 </r>
       <r>   19.6227    0.0000 </r>
       <r>   19.6227    0.0000 </r>
       <r>   20.5924    0.0000 </r>
       <r>   21.3335    0.0000 </r>
       <r>   21.3338    0.0000 </r>
      </set>
      <set comment="kpoint 14">
       <r>  -16.7738    1.0000 </r>
       <r>  -16.2424    1.0000 </r>
       <r>   -4.6875    1.0000 </r>
       <r>   -4.5986    1.0000 </r>
       <r>   -4.5253    1.0000 </r>
       <r>   -4.4973    1.0000 </r>
       <r>   -4.3769    1.0000 </r>
       <r>   -4.3618    1.0000 </r>
       <r>   -3.4386    1.0000 </r>
       <r>   -3.4215    1.0000 </r>
       <r>   -3.2500    1.0000 </r>
       <r>   -3.2301    1.0000 </r>
       <r>   -2.5120    1.0000 </r>
       <r>   -0.1199    1.0000 </r>
       <r>    0.0389    1.0000 </r>
       <r>    0.2031    1.0000 </r>
       <r>    0.7896    1.0000 </r>
       <r>    0.8903    1.0000 </r>
       <r>    3.1959    0.0000 </r>
       <r>    6.3477    0.0000 </r>
       <r>    9.5237    0.0000 </r>
       <r>   12.7725    0.0000 </r>
       <r>   13.7246    0.0000 </r>
       <r>   14.0165    0.0000 </r>
       <r>   14.1578    0.0000 </r>
       <r>   14.9757    0.0000 </r>
       <r>   17.7630    0.0000 </r>
       <r>   19.1222    0.0000 </r>
       <r>   19.7229    0.0000 </r>
       <r>   21.0185    0.0000 </r>
       <r>   22.1731    0.0000 </r>
       <r>   22.5057    0.0000 </r>
      </set>
      <set comment="kpoint 15">
       <r>  -16.6085    1.0000 </r>
       <r>  -16.1609    1.0000 </r>
       <r>   -4.8245    1.0000 </r>
       <r>   -4.6071    1.0000 </r>
       <r>   -4.4304    1.0000 </r>
       <r>   -4.3709    1.0000 </r>
       <r>   -4.2184    1.0000 </r>
       <r>   -4.2172    1.0000 </r>
       <r>   -3.4806    1.0000 </r>
       <r>   -3.4111    1.0000 </r>
       <r>   -3.2421    1.0000 </r>
       <r>   -3.1756    1.0000 </r>
       <r>   -2.4289    1.0000 </r>
       <r>   -1.0499    1.0000 </r>
       <r>   -0.5980    1.0000 </r>
       <r>   -0.1814    1.0000 </r>
       <r>    0.5532    1.0000 </r>
       <r>    0.6454    1.0000 </r>
       <r>    4.2419    0.0000 </r>
       <r>    7.2422    0.0000 </r>
       <r>    9.5247    0.0000 </r>
       <r>   11.1170    0.0000 </r>
       <r>   12.7140    0.0000 </r>
       <r>   13.9106    0.0000 </r>
       <r>   14.2875    0.0000 </r>
       <r>   15.0157    0.0000 </r>
       <r>   16.4323    0.0000 </r>
       <r>   19.2271    0.0000 </r>
       <r>   19.5760    0.0000 </r>
       <r>   22.2791    0.0000 </r>
       <r>   23.2119    0.0000 </r>
       <r>   24.4075    0.0000 </r>
      </set>
      <set comment="kpoint 16">
       <r>  -16.4003    1.0000 </r>
       <r>  -16.0792    1.0000 </r>
       <r>   -4.8982    1.0000 </r>
       <r>   -4.6443    1.0000 </r>
       <r>   -4.3395    1.0000 </r>
       <r>   -4.1998    1.0000 </r>
       <r>   -4.0279    1.0000 </r>
       <r>   -4.0207    1.0000 </r>
       <r>   -3.4708    1.0000 </r>
       <r>   -3.3573    1.0000 </r>
       <r>   -3.2298    1.0000 </r>
       <r>   -3.1174    1.0000 </r>
       <r>   -2.4475    1.0000 </r>
       <r>   -1.8759    1.0000 </r>
       <r>   -1.2204    1.0000 </r>
       <r>   -0.6346    1.0000 </r>
       <r>    0.2617    1.0000 </r>
       <r>    0.3491    1.0000 </r>
       <r>    5.3934    0.0000 </r>
       <r>    7.8242    0.0000 </r>
       <r>    9.4091    0.0000 </r>
       <r>    9.9006    0.0000 </r>
       <r>   11.9502    0.0000 </r>
       <r>   13.5733    0.0000 </r>
       <r>   14.4176    0.0000 </r>
       <r>   14.9641    0.0000 </r>
       <r>   15.9537    0.0000 </r>
       <r>   19.4077    0.0000 </r>
       <r>   20.3705    0.0000 </r>
       <r>   21.6645    0.0000 </r>
       <r>   22.9716    0.0000 </r>
       <r>   25.8177    0.0000 </r>
      </set>
      <set comment="kpoint 17">
       <r>  -16.2407    1.0000 </r>
       <r>  -16.0453    1.0000 </r>
       <r>   -4.8639    1.0000 </r>
       <r>   -4.6933    1.0000 </r>
       <r>   -4.2934    1.0000 </r>
       <r>   -4.0239    1.0000 </r>
       <r>   -3.9639    1.0000 </r>
       <r>   -3.8874    1.0000 </r>
       <r>   -3.3514    1.0000 </r>
       <r>   -3.2862    1.0000 </r>
       <r>   -3.2157    1.0000 </r>
       <r>   -3.0806    1.0000 </r>
       <r>   -2.7528    1.0000 </r>
       <r>   -2.3550    1.0000 </r>
       <r>   -1.3509    1.0000 </r>
       <r>   -0.9535    1.0000 </r>
       <r>   -0.0383    1.0000 </r>
       <r>    0.1451    1.0000 </r>
       <r>    6.3693    0.0000 </r>
       <r>    7.7530    0.0000 </r>
       <r>    8.9705    0.0000 </r>
       <r>    9.5582    0.0000 </r>
       <r>   11.5530    0.0000 </r>
       <r>   13.5796    0.0000 </r>
       <r>   14.2967    0.0000 </r>
       <r>   15.0750    0.0000 </r>
       <r>   15.8299    0.0000 </r>
       <r>   19.4939    0.0000 </r>
       <r>   21.4301    0.0000 </r>
       <r>   21.6950    0.0000 </r>
       <r>   22.3271    0.0000 </r>
       <r>   25.7030    0.0000 </r>
      </set>
      <set comment="kpoint 18">
       <r>  -16.6602    1.0000 </r>
       <r>  -16.1854    1.0000 </r>
       <r>   -4.7628    1.0000 </r>
       <r>   -4.6200    1.0000 </r>
       <r>   -4.4458    1.0000 </r>
       <r>   -4.4399    1.0000 </r>
       <r>   -4.2719    1.0000 </r>
       <r>   -4.2544    1.0000 </r>
       <r>   -3.4665    1.0000 </r>
       <r>   -3.4202    1.0000 </r>
       <r>   -3.2458    1.0000 </r>
       <r>   -3.1890    1.0000 </r>
       <r>   -2.4535    1.0000 </r>
       <r>   -0.6202    1.0000 </r>
       <r>   -0.5882    1.0000 </r>
       <r>   -0.0531    1.0000 </r>
       <r>    0.6321    1.0000 </r>
       <r>    0.6718    1.0000 </r>
       <r>    3.9611    0.0000 </r>
       <r>    7.0233    0.0000 </r>
       <r>    9.5408    0.0000 </r>
       <r>   11.6213    0.0000 </r>
       <r>   13.1145    0.0000 </r>
       <r>   13.5560    0.0000 </r>
       <r>   14.0564    0.0000 </r>
       <r>   15.2765    0.0000 </r>
       <r>   17.4201    0.0000 </r>
       <r>   17.7434    0.0000 </r>
       <r>   20.9365    0.0000 </r>
       <r>   21.8653    0.0000 </r>
       <r>   23.4965    0.0000 </r>
       <r>   23.5470    0.0000 </r>
      </set>
      <set comment="kpoint 19">
       <r>  -16.4722    1.0000 </r>
       <r>  -16.1037    1.0000 </r>
       <r>   -4.8307    1.0000 </r>
       <r>   -4.6244    1.0000 </r>
       <r>   -4.3869    1.0000 </r>
       <r>   -4.2954    1.0000 </r>
       <r>   -4.1016    1.0000 </r>
       <r>   -4.0784    1.0000 </r>
       <r>   -3.4915    1.0000 </r>
       <r>   -3.3801    1.0000 </r>
       <r>   -3.2346    1.0000 </r>
       <r>   -3.1288    1.0000 </r>
       <r>   -2.3817    1.0000 </r>
       <r>   -1.4741    1.0000 </r>
       <r>   -1.1078    1.0000 </r>
       <r>   -0.6092    1.0000 </r>
       <r>    0.3182    1.0000 </r>
       <r>    0.4025    1.0000 </r>
       <r>    5.0789    0.0000 </r>
       <r>    7.7987    0.0000 </r>
       <r>    9.5662    0.0000 </r>
       <r>   10.3985    0.0000 </r>
       <r>   12.2754    0.0000 </r>
       <r>   13.0778    0.0000 </r>
       <r>   13.6639    0.0000 </r>
       <r>   15.6114    0.0000 </r>
       <r>   16.5827    0.0000 </r>
       <r>   18.3809    0.0000 </r>
       <r>   20.7199    0.0000 </r>
       <r>   22.8339    0.0000 </r>
       <r>   23.4384    0.0000 </r>
       <r>   23.8386    0.0000 </r>
      </set>
      <set comment="kpoint 20">
       <r>  -16.2840    1.0000 </r>
       <r>  -16.0493    1.0000 </r>
       <r>   -4.8211    1.0000 </r>
       <r>   -4.6141    1.0000 </r>
       <r>   -4.3318    1.0000 </r>
       <r>   -4.1275    1.0000 </r>
       <r>   -3.9649    1.0000 </r>
       <r>   -3.9215    1.0000 </r>
       <r>   -3.4426    1.0000 </r>
       <r>   -3.3162    1.0000 </r>
       <r>   -3.2092    1.0000 </r>
       <r>   -3.0435    1.0000 </r>
       <r>   -2.6437    1.0000 </r>
       <r>   -2.0729    1.0000 </r>
       <r>   -1.3778    1.0000 </r>
       <r>   -1.0805    1.0000 </r>
       <r>   -0.0267    1.0000 </r>
       <r>    0.1059    1.0000 </r>
       <r>    6.2359    0.0000 </r>
       <r>    8.0909    0.0000 </r>
       <r>    9.3107    0.0000 </r>
       <r>    9.6499    0.0000 </r>
       <r>   11.6216    0.0000 </r>
       <r>   13.0272    0.0000 </r>
       <r>   13.5369    0.0000 </r>
       <r>   15.2983    0.0000 </r>
       <r>   16.5972    0.0000 </r>
       <r>   19.1875    0.0000 </r>
       <r>   20.7977    0.0000 </r>
       <r>   22.5710    0.0000 </r>
       <r>   22.8806    0.0000 </r>
       <r>   24.9837    0.0000 </r>
      </set>
      <set comment="kpoint 21">
       <r>  -16.1937    1.0000 </r>
       <r>  -16.0419    1.0000 </r>
       <r>   -4.7853    1.0000 </r>
       <r>   -4.6052    1.0000 </r>
       <r>   -4.3191    1.0000 </r>
       <r>   -4.0221    1.0000 </r>
       <r>   -3.9350    1.0000 </r>
       <r>   -3.8510    1.0000 </r>
       <r>   -3.3476    1.0000 </r>
       <r>   -3.3096    1.0000 </r>
       <r>   -3.1678    1.0000 </r>
       <r>   -3.1179    1.0000 </r>
       <r>   -2.6879    1.0000 </r>
       <r>   -2.4634    1.0000 </r>
       <r>   -1.5064    1.0000 </r>
       <r>   -1.0492    1.0000 </r>
       <r>   -0.2423    1.0000 </r>
       <r>   -0.0337    1.0000 </r>
       <r>    6.9169    0.0000 </r>
       <r>    7.9888    0.0000 </r>
       <r>    8.9030    0.0000 </r>
       <r>    9.5770    0.0000 </r>
       <r>   11.3359    0.0000 </r>
       <r>   12.9719    0.0000 </r>
       <r>   13.9571    0.0000 </r>
       <r>   14.9221    0.0000 </r>
       <r>   16.5860    0.0000 </r>
       <r>   19.6873    0.0000 </r>
       <r>   20.8176    0.0000 </r>
       <r>   22.5574    0.0000 </r>
       <r>   22.5970    0.0000 </r>
       <r>   25.3383    0.0000 </r>
      </set>
      <set comment="kpoint 22">
       <r>  -16.3013    1.0000 </r>
       <r>  -16.0515    1.0000 </r>
       <r>   -4.7030    1.0000 </r>
       <r>   -4.6331    1.0000 </r>
       <r>   -4.2831    1.0000 </r>
       <r>   -4.2424    1.0000 </r>
       <r>   -3.9922    1.0000 </r>
       <r>   -3.9320    1.0000 </r>
       <r>   -3.4914    1.0000 </r>
       <r>   -3.3263    1.0000 </r>
       <r>   -3.2052    1.0000 </r>
       <r>   -3.0292    1.0000 </r>
       <r>   -2.5299    1.0000 </r>
       <r>   -1.8333    1.0000 </r>
       <r>   -1.3818    1.0000 </r>
       <r>   -1.3375    1.0000 </r>
       <r>   -0.1580    1.0000 </r>
       <r>    0.1280    1.0000 </r>
       <r>    6.2794    0.0000 </r>
       <r>    8.2876    0.0000 </r>
       <r>    9.6793    0.0000 </r>
       <r>    9.8172    0.0000 </r>
       <r>   11.7857    0.0000 </r>
       <r>   12.1317    0.0000 </r>
       <r>   13.0398    0.0000 </r>
       <r>   16.2617    0.0000 </r>
       <r>   16.3932    0.0000 </r>
       <r>   18.4818    0.0000 </r>
       <r>   21.7764    0.0000 </r>
       <r>   22.6087    0.0000 </r>
       <r>   23.7926    0.0000 </r>
       <r>   24.2377    0.0000 </r>
      </set>
      <set comment="kpoint 23">
       <r>  -16.1638    1.0000 </r>
       <r>  -16.0410    1.0000 </r>
       <r>   -4.6474    1.0000 </r>
       <r>   -4.4671    1.0000 </r>
       <r>   -4.3099    1.0000 </r>
       <r>   -4.1085    1.0000 </r>
       <r>   -3.8584    1.0000 </r>
       <r>   -3.8277    1.0000 </r>
       <r>   -3.4430    1.0000 </r>
       <r>   -3.3411    1.0000 </r>
       <r>   -3.1616    1.0000 </r>
       <r>   -3.0220    1.0000 </r>
       <r>   -2.7132    1.0000 </r>
       <r>   -2.2883    1.0000 </r>
       <r>   -1.9700    1.0000 </r>
       <r>   -1.0293    1.0000 </r>
       <r>   -0.5386    1.0000 </r>
       <r>   -0.1975    1.0000 </r>
       <r>    7.4835    0.0000 </r>
       <r>    8.5152    0.0000 </r>
       <r>    9.1651    0.0000 </r>
       <r>    9.5992    0.0000 </r>
       <r>   11.0352    0.0000 </r>
       <r>   11.7666    0.0000 </r>
       <r>   13.8434    0.0000 </r>
       <r>   15.2943    0.0000 </r>
       <r>   16.5274    0.0000 </r>
       <r>   19.5414    0.0000 </r>
       <r>   21.1816    0.0000 </r>
       <r>   22.7218    0.0000 </r>
       <r>   24.0006    0.0000 </r>
       <r>   24.2765    0.0000 </r>
      </set>
      <set comment="kpoint 24">
       <r>  -16.0774    1.0000 </r>
       <r>  -16.0774    1.0000 </r>
       <r>   -4.5732    1.0000 </r>
       <r>   -4.3465    1.0000 </r>
       <r>   -4.3465    1.0000 </r>
       <r>   -4.0088    1.0000 </r>
       <r>   -3.7416    1.0000 </r>
       <r>   -3.7416    1.0000 </r>
       <r>   -3.4875    1.0000 </r>
       <r>   -3.3922    1.0000 </r>
       <r>   -3.1450    1.0000 </r>
       <r>   -3.1449    1.0000 </r>
       <r>   -2.5056    1.0000 </r>
       <r>   -2.5056    1.0000 </r>
       <r>   -2.3999    1.0000 </r>
       <r>   -0.8266    1.0000 </r>
       <r>   -0.5910    1.0000 </r>
       <r>   -0.5910    1.0000 </r>
       <r>    8.7343    0.0000 </r>
       <r>    8.7343    0.0000 </r>
       <r>    8.8023    0.0000 </r>
       <r>    9.1619    0.0000 </r>
       <r>   10.9980    0.0000 </r>
       <r>   10.9980    0.0000 </r>
       <r>   14.5446    0.0000 </r>
       <r>   15.5024    0.0000 </r>
       <r>   15.5024    0.0000 </r>
       <r>   20.2170    0.0000 </r>
       <r>   21.5984    0.0000 </r>
       <r>   21.5984    0.0000 </r>
       <r>   24.1443    0.0000 </r>
       <r>   25.4137    0.0000 </r>
      </set>
      <set comment="kpoint 25">
       <r>  -16.6681    1.0000 </r>
       <r>  -16.4553    1.0000 </r>
       <r>   -4.7633    1.0000 </r>
       <r>   -4.7254    1.0000 </r>
       <r>   -4.5316    1.0000 </r>
       <r>   -4.5314    1.0000 </r>
       <r>   -4.4748    1.0000 </r>
       <r>   -4.4746    1.0000 </r>
       <r>   -3.3562    1.0000 </r>
       <r>   -3.3562    1.0000 </r>
       <r>   -3.2927    1.0000 </r>
       <r>   -3.2927    1.0000 </r>
       <r>   -1.6663    1.0000 </r>
       <r>   -0.7023    1.0000 </r>
       <r>    0.5496    1.0000 </r>
       <r>    0.5505    1.0000 </r>
       <r>    0.7914    1.0000 </r>
       <r>    0.7923    1.0000 </r>
       <r>    3.8771    0.0000 </r>
       <r>    5.0326    0.0000 </r>
       <r>   10.4023    0.0000 </r>
       <r>   11.8644    0.0000 </r>
       <r>   14.0304    0.0000 </r>
       <r>   14.0304    0.0000 </r>
       <r>   14.3817    0.0000 </r>
       <r>   14.3818    0.0000 </r>
       <r>   18.7646    0.0000 </r>
       <r>   19.7223    0.0000 </r>
       <r>   20.6496    0.0000 </r>
       <r>   20.6498    0.0000 </r>
       <r>   21.5937    0.0000 </r>
       <r>   21.5941    0.0000 </r>
      </set>
      <set comment="kpoint 26">
       <r>  -16.6136    1.0000 </r>
       <r>  -16.4111    1.0000 </r>
       <r>   -4.7883    1.0000 </r>
       <r>   -4.7750    1.0000 </r>
       <r>   -4.4879    1.0000 </r>
       <r>   -4.4877    1.0000 </r>
       <r>   -4.4373    1.0000 </r>
       <r>   -4.4260    1.0000 </r>
       <r>   -3.3630    1.0000 </r>
       <r>   -3.3590    1.0000 </r>
       <r>   -3.2932    1.0000 </r>
       <r>   -3.2855    1.0000 </r>
       <r>   -1.6436    1.0000 </r>
       <r>   -0.7696    1.0000 </r>
       <r>    0.1934    1.0000 </r>
       <r>    0.4183    1.0000 </r>
       <r>    0.5144    1.0000 </r>
       <r>    0.6807    1.0000 </r>
       <r>    4.2616    0.0000 </r>
       <r>    5.4121    0.0000 </r>
       <r>   10.3956    0.0000 </r>
       <r>   11.7776    0.0000 </r>
       <r>   13.2393    0.0000 </r>
       <r>   13.6660    0.0000 </r>
       <r>   14.1402    0.0000 </r>
       <r>   14.4808    0.0000 </r>
       <r>   18.7828    0.0000 </r>
       <r>   19.6538    0.0000 </r>
       <r>   20.4826    0.0000 </r>
       <r>   21.2482    0.0000 </r>
       <r>   21.9709    0.0000 </r>
       <r>   22.1734    0.0000 </r>
      </set>
      <set comment="kpoint 27">
       <r>  -16.4717    1.0000 </r>
       <r>  -16.3005    1.0000 </r>
       <r>   -4.8877    1.0000 </r>
       <r>   -4.8308    1.0000 </r>
       <r>   -4.3775    1.0000 </r>
       <r>   -4.3759    1.0000 </r>
       <r>   -4.3234    1.0000 </r>
       <r>   -4.2969    1.0000 </r>
       <r>   -3.3716    1.0000 </r>
       <r>   -3.3550    1.0000 </r>
       <r>   -3.2905    1.0000 </r>
       <r>   -3.2621    1.0000 </r>
       <r>   -1.6816    1.0000 </r>
       <r>   -1.1571    1.0000 </r>
       <r>   -0.4544    1.0000 </r>
       <r>    0.0799    1.0000 </r>
       <r>    0.1377    1.0000 </r>
       <r>    0.3946    1.0000 </r>
       <r>    5.0628    0.0000 </r>
       <r>    6.1726    0.0000 </r>
       <r>   10.2300    0.0000 </r>
       <r>   10.9943    0.0000 </r>
       <r>   12.4583    0.0000 </r>
       <r>   12.9713    0.0000 </r>
       <r>   14.3786    0.0000 </r>
       <r>   14.6400    0.0000 </r>
       <r>   17.4132    0.0000 </r>
       <r>   18.8184    0.0000 </r>
       <r>   20.7129    0.0000 </r>
       <r>   22.6440    0.0000 </r>
       <r>   22.9263    0.0000 </r>
       <r>   23.3603    0.0000 </r>
      </set>
      <set comment="kpoint 28">
       <r>  -16.2992    1.0000 </r>
       <r>  -16.1765    1.0000 </r>
       <r>   -4.9531    1.0000 </r>
       <r>   -4.8741    1.0000 </r>
       <r>   -4.2574    1.0000 </r>
       <r>   -4.2169    1.0000 </r>
       <r>   -4.1610    1.0000 </r>
       <r>   -4.1397    1.0000 </r>
       <r>   -3.3473    1.0000 </r>
       <r>   -3.3211    1.0000 </r>
       <r>   -3.2734    1.0000 </r>
       <r>   -3.2207    1.0000 </r>
       <r>   -2.1159    1.0000 </r>
       <r>   -1.8588    1.0000 </r>
       <r>   -0.6995    1.0000 </r>
       <r>   -0.3176    1.0000 </r>
       <r>   -0.0082    1.0000 </r>
       <r>    0.0560    1.0000 </r>
       <r>    5.8782    0.0000 </r>
       <r>    6.7883    0.0000 </r>
       <r>    9.7936    0.0000 </r>
       <r>    9.9882    0.0000 </r>
       <r>   12.0951    0.0000 </r>
       <r>   12.9309    0.0000 </r>
       <r>   14.5290    0.0000 </r>
       <r>   14.7388    0.0000 </r>
       <r>   16.4492    0.0000 </r>
       <r>   18.1877    0.0000 </r>
       <r>   21.6871    0.0000 </r>
       <r>   22.7372    0.0000 </r>
       <r>   22.8646    0.0000 </r>
       <r>   23.6171    0.0000 </r>
      </set>
      <set comment="kpoint 29">
       <r>  -16.1761    1.0000 </r>
       <r>  -16.1007    1.0000 </r>
       <r>   -4.9490    1.0000 </r>
       <r>   -4.8995    1.0000 </r>
       <r>   -4.1868    1.0000 </r>
       <r>   -4.0574    1.0000 </r>
       <r>   -4.0331    1.0000 </r>
       <r>   -4.0313    1.0000 </r>
       <r>   -3.2715    1.0000 </r>
       <r>   -3.2471    1.0000 </r>
       <r>   -3.2464    1.0000 </r>
       <r>   -3.1539    1.0000 </r>
       <r>   -2.6436    1.0000 </r>
       <r>   -2.4854    1.0000 </r>
       <r>   -0.6200    1.0000 </r>
       <r>   -0.5911    1.0000 </r>
       <r>   -0.1772    1.0000 </r>
       <r>   -0.0885    1.0000 </r>
       <r>    6.4446    0.0000 </r>
       <r>    7.0336    0.0000 </r>
       <r>    9.3472    0.0000 </r>
       <r>    9.5542    0.0000 </r>
       <r>   11.8706    0.0000 </r>
       <r>   12.8926    0.0000 </r>
       <r>   14.5206    0.0000 </r>
       <r>   14.8194    0.0000 </r>
       <r>   16.2341    0.0000 </r>
       <r>   18.1158    0.0000 </r>
       <r>   22.2408    0.0000 </r>
       <r>   22.7372    0.0000 </r>
       <r>   22.8730    0.0000 </r>
       <r>   24.6783    0.0000 </r>
      </set>
      <set comment="kpoint 30">
       <r>  -16.5152    1.0000 </r>
       <r>  -16.3339    1.0000 </r>
       <r>   -4.8436    1.0000 </r>
       <r>   -4.8163    1.0000 </r>
       <r>   -4.4391    1.0000 </r>
       <r>   -4.4281    1.0000 </r>
       <r>   -4.3476    1.0000 </r>
       <r>   -4.3215    1.0000 </r>
       <r>   -3.3688    1.0000 </r>
       <r>   -3.3593    1.0000 </r>
       <r>   -3.2929    1.0000 </r>
       <r>   -3.2679    1.0000 </r>
       <r>   -1.6429    1.0000 </r>
       <r>   -0.9897    1.0000 </r>
       <r>   -0.2728    1.0000 </r>
       <r>    0.1142    1.0000 </r>
       <r>    0.2599    1.0000 </r>
       <r>    0.4306    1.0000 </r>
       <r>    4.8551    0.0000 </r>
       <r>    5.9852    0.0000 </r>
       <r>   10.3246    0.0000 </r>
       <r>   11.3371    0.0000 </r>
       <r>   12.6725    0.0000 </r>
       <r>   12.9103    0.0000 </r>
       <r>   14.1492    0.0000 </r>
       <r>   14.6111    0.0000 </r>
       <r>   18.6131    0.0000 </r>
       <r>   18.6966    0.0000 </r>
       <r>   20.3574    0.0000 </r>
       <r>   21.3992    0.0000 </r>
       <r>   23.1369    0.0000 </r>
       <r>   24.0721    0.0000 </r>
      </set>
      <set comment="kpoint 31">
       <r>  -16.3571    1.0000 </r>
       <r>  -16.2162    1.0000 </r>
       <r>   -4.8982    1.0000 </r>
       <r>   -4.8358    1.0000 </r>
       <r>   -4.3508    1.0000 </r>
       <r>   -4.3177    1.0000 </r>
       <r>   -4.2130    1.0000 </r>
       <r>   -4.1692    1.0000 </r>
       <r>   -3.3645    1.0000 </r>
       <r>   -3.3331    1.0000 </r>
       <r>   -3.2767    1.0000 </r>
       <r>   -3.2302    1.0000 </r>
       <r>   -1.8679    1.0000 </r>
       <r>   -1.5344    1.0000 </r>
       <r>   -0.6593    1.0000 </r>
       <r>   -0.3508    1.0000 </r>
       <r>    0.0093    1.0000 </r>
       <r>    0.0975    1.0000 </r>
       <r>    5.7100    0.0000 </r>
       <r>    6.7189    0.0000 </r>
       <r>   10.0456    0.0000 </r>
       <r>   10.4364    0.0000 </r>
       <r>   12.1228    0.0000 </r>
       <r>   12.4952    0.0000 </r>
       <r>   14.1005    0.0000 </r>
       <r>   14.8804    0.0000 </r>
       <r>   17.4539    0.0000 </r>
       <r>   18.5964    0.0000 </r>
       <r>   20.5126    0.0000 </r>
       <r>   21.6445    0.0000 </r>
       <r>   23.8179    0.0000 </r>
       <r>   24.0289    0.0000 </r>
      </set>
      <set comment="kpoint 32">
       <r>  -16.2077    1.0000 </r>
       <r>  -16.1179    1.0000 </r>
       <r>   -4.8952    1.0000 </r>
       <r>   -4.8311    1.0000 </r>
       <r>   -4.2522    1.0000 </r>
       <r>   -4.1679    1.0000 </r>
       <r>   -4.0750    1.0000 </r>
       <r>   -4.0458    1.0000 </r>
       <r>   -3.3345    1.0000 </r>
       <r>   -3.2902    1.0000 </r>
       <r>   -3.2202    1.0000 </r>
       <r>   -3.1530    1.0000 </r>
       <r>   -2.4160    1.0000 </r>
       <r>   -2.1926    1.0000 </r>
       <r>   -0.8423    1.0000 </r>
       <r>   -0.5885    1.0000 </r>
       <r>   -0.3282    1.0000 </r>
       <r>   -0.0124    1.0000 </r>
       <r>    6.5170    0.0000 </r>
       <r>    7.2361    0.0000 </r>
       <r>    9.6015    0.0000 </r>
       <r>    9.7258    0.0000 </r>
       <r>   11.6101    0.0000 </r>
       <r>   12.2461    0.0000 </r>
       <r>   14.4203    0.0000 </r>
       <r>   15.1311    0.0000 </r>
       <r>   16.8515    0.0000 </r>
       <r>   18.1771    0.0000 </r>
       <r>   21.3705    0.0000 </r>
       <r>   22.3704    0.0000 </r>
       <r>   23.3946    0.0000 </r>
       <r>   23.8705    0.0000 </r>
      </set>
      <set comment="kpoint 33">
       <r>  -16.1423    1.0000 </r>
       <r>  -16.0841    1.0000 </r>
       <r>   -4.8729    1.0000 </r>
       <r>   -4.8268    1.0000 </r>
       <r>   -4.2267    1.0000 </r>
       <r>   -4.0881    1.0000 </r>
       <r>   -3.9844    1.0000 </r>
       <r>   -3.9776    1.0000 </r>
       <r>   -3.2967    1.0000 </r>
       <r>   -3.2954    1.0000 </r>
       <r>   -3.1204    1.0000 </r>
       <r>   -3.0998    1.0000 </r>
       <r>   -2.6959    1.0000 </r>
       <r>   -2.6009    1.0000 </r>
       <r>   -0.9989    1.0000 </r>
       <r>   -0.5198    1.0000 </r>
       <r>   -0.4732    1.0000 </r>
       <r>   -0.0729    1.0000 </r>
       <r>    6.9024    0.0000 </r>
       <r>    7.4007    0.0000 </r>
       <r>    9.2871    0.0000 </r>
       <r>    9.5491    0.0000 </r>
       <r>   11.3760    0.0000 </r>
       <r>   12.1142    0.0000 </r>
       <r>   14.7921    0.0000 </r>
       <r>   15.0895    0.0000 </r>
       <r>   16.6973    0.0000 </r>
       <r>   18.1098    0.0000 </r>
       <r>   21.8061    0.0000 </r>
       <r>   22.5985    0.0000 </r>
       <r>   23.2919    0.0000 </r>
       <r>   23.5770    0.0000 </r>
      </set>
      <set comment="kpoint 34">
       <r>  -16.2204    1.0000 </r>
       <r>  -16.1247    1.0000 </r>
       <r>   -4.8118    1.0000 </r>
       <r>   -4.7734    1.0000 </r>
       <r>   -4.2914    1.0000 </r>
       <r>   -4.2822    1.0000 </r>
       <r>   -4.0980    1.0000 </r>
       <r>   -4.0520    1.0000 </r>
       <r>   -3.3562    1.0000 </r>
       <r>   -3.2979    1.0000 </r>
       <r>   -3.2108    1.0000 </r>
       <r>   -3.1421    1.0000 </r>
       <r>   -2.2401    1.0000 </r>
       <r>   -1.9948    1.0000 </r>
       <r>   -1.0312    1.0000 </r>
       <r>   -0.7393    1.0000 </r>
       <r>   -0.4170    1.0000 </r>
       <r>    0.0113    1.0000 </r>
       <r>    6.6697    0.0000 </r>
       <r>    7.4412    0.0000 </r>
       <r>    9.8695    0.0000 </r>
       <r>    9.9444    0.0000 </r>
       <r>   11.3898    0.0000 </r>
       <r>   11.4811    0.0000 </r>
       <r>   14.2237    0.0000 </r>
       <r>   15.5630    0.0000 </r>
       <r>   17.3533    0.0000 </r>
       <r>   18.3401    0.0000 </r>
       <r>   21.0272    0.0000 </r>
       <r>   21.0918    0.0000 </r>
       <r>   24.1280    0.0000 </r>
       <r>   24.6485    0.0000 </r>
      </set>
      <set comment="kpoint 35">
       <r>  -16.1210    1.0000 </r>
       <r>  -16.0737    1.0000 </r>
       <r>   -4.7141    1.0000 </r>
       <r>   -4.6673    1.0000 </r>
       <r>   -4.3265    1.0000 </r>
       <r>   -4.2014    1.0000 </r>
       <r>   -3.9407    1.0000 </r>
       <r>   -3.9333    1.0000 </r>
       <r>   -3.3721    1.0000 </r>
       <r>   -3.3369    1.0000 </r>
       <r>   -3.0857    1.0000 </r>
       <r>   -3.0012    1.0000 </r>
       <r>   -2.6201    1.0000 </r>
       <r>   -2.4442    1.0000 </r>
       <r>   -1.5136    1.0000 </r>
       <r>   -1.0004    1.0000 </r>
       <r>   -0.3908    1.0000 </r>
       <r>   -0.0892    1.0000 </r>
       <r>    7.6134    0.0000 </r>
       <r>    8.0702    0.0000 </r>
       <r>    9.4237    0.0000 </r>
       <r>    9.6935    0.0000 </r>
       <r>   10.4600    0.0000 </r>
       <r>   10.9285    0.0000 </r>
       <r>   15.0445    0.0000 </r>
       <r>   15.9740    0.0000 </r>
       <r>   17.0490    0.0000 </r>
       <r>   18.0272    0.0000 </r>
       <r>   20.6806    0.0000 </r>
       <r>   21.6406    0.0000 </r>
       <r>   23.9211    0.0000 </r>
       <r>   24.3501    0.0000 </r>
      </set>
      <set comment="kpoint 36">
       <r>  -16.0714    1.0000 </r>
       <r>  -16.0713    1.0000 </r>
       <r>   -4.5412    1.0000 </r>
       <r>   -4.5412    1.0000 </r>
       <r>   -4.4519    1.0000 </r>
       <r>   -4.2531    1.0000 </r>
       <r>   -3.8158    1.0000 </r>
       <r>   -3.8158    1.0000 </r>
       <r>   -3.4529    1.0000 </r>
       <r>   -3.4184    1.0000 </r>
       <r>   -2.9613    1.0000 </r>
       <r>   -2.9613    1.0000 </r>
       <r>   -2.6014    1.0000 </r>
       <r>   -2.6013    1.0000 </r>
       <r>   -1.8801    1.0000 </r>
       <r>   -1.2979    1.0000 </r>
       <r>   -0.2259    1.0000 </r>
       <r>   -0.2258    1.0000 </r>
       <r>    8.9014    0.0000 </r>
       <r>    8.9014    0.0000 </r>
       <r>    8.9698    0.0000 </r>
       <r>    9.0997    0.0000 </r>
       <r>   10.0176    0.0000 </r>
       <r>   10.0176    0.0000 </r>
       <r>   15.7744    0.0000 </r>
       <r>   16.6604    0.0000 </r>
       <r>   16.6604    0.0000 </r>
       <r>   17.7448    0.0000 </r>
       <r>   20.6094    0.0000 </r>
       <r>   20.6094    0.0000 </r>
       <r>   24.5073    0.0000 </r>
       <r>   24.8771    0.0000 </r>
      </set>
     </set>
    </set>
   </array>
  </eigenvalues>
  <separator name="orbital magnetization" >
   <v name="MAGDIPOLOUT">      0.00000000      0.00000000      0.00000000</v>
  </separator>
  <dos>
   <i name="efermi">      1.36408735 </i>
   <total>
    <array>
     <dimension dim="1">gridpoints</dimension>
     <dimension dim="2">spin</dimension>
     <field>energy</field>
     <field>total</field>
     <field>integrated</field>
     <set>
      <set comment="spin 1">
       <r>   -19.0369     0.0000     0.0000 </r>
       <r>   -18.8801     0.0000     0.0000 </r>
       <r>   -18.7233     0.0000     0.0000 </r>
       <r>   -18.5665     0.0000     0.0000 </r>
       <r>   -18.4098     0.0000     0.0000 </r>
       <r>   -18.2530     0.0000     0.0000 </r>
       <r>   -18.0962     0.0000     0.0000 </r>
       <r>   -17.9394     0.0000     0.0000 </r>
       <r>   -17.7826     0.0000     0.0000 </r>
       <r>   -17.6259     0.0000     0.0000 </r>
       <r>   -17.4691     0.0000     0.0000 </r>
       <r>   -17.3123     0.0000     0.0000 </r>
       <r>   -17.1555     0.0000     0.0000 </r>
       <r>   -16.9987     0.0001     0.0000 </r>
       <r>   -16.8420     0.1456     0.0228 </r>
       <r>   -16.6852     0.8348     0.1537 </r>
       <r>   -16.5284     1.5867     0.4025 </r>
       <r>   -16.3716     2.8175     0.8442 </r>
       <r>   -16.2149     5.6334     1.7274 </r>
       <r>   -16.0581    10.5805     3.3862 </r>
       <r>   -15.9013     3.9145     3.9999 </r>
       <r>   -15.7445     0.0003     4.0000 </r>
       <r>   -15.5877     0.0000     4.0000 </r>
       <r>   -15.4310     0.0000     4.0000 </r>
       <r>   -15.2742     0.0000     4.0000 </r>
       <r>   -15.1174     0.0000     4.0000 </r>
       <r>   -14.9606     0.0000     4.0000 </r>
       <r>   -14.8038     0.0000     4.0000 </r>
       <r>   -14.6471     0.0000     4.0000 </r>
       <r>   -14.4903     0.0000     4.0000 </r>
       <r>   -14.3335     0.0000     4.0000 </r>
       <r>   -14.1767     0.0000     4.0000 </r>
       <r>   -14.0199     0.0000     4.0000 </r>
       <r>   -13.8632     0.0000     4.0000 </r>
       <r>   -13.7064     0.0000     4.0000 </r>
       <r>   -13.5496     0.0000     4.0000 </r>
       <r>   -13.3928     0.0000     4.0000 </r>
       <r>   -13.2360     0.0000     4.0000 </r>
       <r>   -13.0793     0.0000     4.0000 </r>
       <r>   -12.9225     0.0000     4.0000 </r>
       <r>   -12.7657     0.0000     4.0000 </r>
       <r>   -12.6089     0.0000     4.0000 </r>
       <r>   -12.4521     0.0000     4.0000 </r>
       <r>   -12.2954     0.0000     4.0000 </r>
       <r>   -12.1386     0.0000     4.0000 </r>
       <r>   -11.9818     0.0000     4.0000 </r>
       <r>   -11.8250     0.0000     4.0000 </r>
       <r>   -11.6682     0.0000     4.0000 </r>
       <r>   -11.5115     0.0000     4.0000 </r>
       <r>   -11.3547     0.0000     4.0000 </r>
       <r>   -11.1979     0.0000     4.0000 </r>
       <r>   -11.0411     0.0000     4.0000 </r>
       <r>   -10.8843     0.0000     4.0000 </r>
       <r>   -10.7276     0.0000     4.0000 </r>
       <r>   -10.5708     0.0000     4.0000 </r>
       <r>   -10.4140     0.0000     4.0000 </r>
       <r>   -10.2572     0.0000     4.0000 </r>
       <r>   -10.1004     0.0000     4.0000 </r>
       <r>    -9.9437     0.0000     4.0000 </r>
       <r>    -9.7869     0.0000     4.0000 </r>
       <r>    -9.6301     0.0000     4.0000 </r>
       <r>    -9.4733     0.0000     4.0000 </r>
       <r>    -9.3165     0.0000     4.0000 </r>
       <r>    -9.1598     0.0000     4.0000 </r>
       <r>    -9.0030     0.0000     4.0000 </r>
       <r>    -8.8462     0.0000     4.0000 </r>
       <r>    -8.6894     0.0000     4.0000 </r>
       <r>    -8.5326     0.0000     4.0000 </r>
       <r>    -8.3759     0.0000     4.0000 </r>
       <r>    -8.2191     0.0000     4.0000 </r>
       <r>    -8.0623     0.0000     4.0000 </r>
       <r>    -7.9055     0.0000     4.0000 </r>
       <r>    -7.7487     0.0000     4.0000 </r>
       <r>    -7.5920     0.0000     4.0000 </r>
       <r>    -7.4352     0.0000     4.0000 </r>
       <r>    -7.2784     0.0000     4.0000 </r>
       <r>    -7.1216     0.0000     4.0000 </r>
       <r>    -6.9648     0.0000     4.0000 </r>
       <r>    -6.8081     0.0000     4.0000 </r>
       <r>    -6.6513     0.0000     4.0000 </r>
       <r>    -6.4945     0.0000     4.0000 </r>
       <r>    -6.3377     0.0000     4.0000 </r>
       <r>    -6.1809     0.0000     4.0000 </r>
       <r>    -6.0242     0.0000     4.0000 </r>
       <r>    -5.8674     0.0000     4.0000 </r>
       <r>    -5.7106     0.0000     4.0000 </r>
       <r>    -5.5538     0.0000     4.0000 </r>
       <r>    -5.3970     0.0000     4.0000 </r>
       <r>    -5.2403     0.0000     4.0000 </r>
       <r>    -5.0835     0.0001     4.0000 </r>
       <r>    -4.9267     1.1691     4.1833 </r>
       <r>    -4.7699    10.4999     5.8295 </r>
       <r>    -4.6131     7.9497     7.0758 </r>
       <r>    -4.4564     7.6554     8.2761 </r>
       <r>    -4.2996    14.3377    10.5239 </r>
       <r>    -4.1428    12.7907    12.5292 </r>
       <r>    -3.9860    11.0563    14.2626 </r>
       <r>    -3.8292     8.3058    15.5648 </r>
       <r>    -3.6725     2.5502    15.9647 </r>
       <r>    -3.5157     1.6729    16.2269 </r>
       <r>    -3.3589    13.5691    18.3543 </r>
       <r>    -3.2021    21.1288    21.6669 </r>
       <r>    -3.0453    11.5356    23.4754 </r>
       <r>    -2.8886     3.9518    24.0950 </r>
       <r>    -2.7318     1.8632    24.3871 </r>
       <r>    -2.5750     4.2981    25.0609 </r>
       <r>    -2.4182     4.0721    25.6994 </r>
       <r>    -2.2614     3.3857    26.2302 </r>
       <r>    -2.1047     2.2059    26.5760 </r>
       <r>    -1.9479     2.0347    26.8950 </r>
       <r>    -1.7911     2.4780    27.2835 </r>
       <r>    -1.6343     1.4499    27.5108 </r>
       <r>    -1.4775     2.9923    27.9800 </r>
       <r>    -1.3208     2.7584    28.4124 </r>
       <r>    -1.1640     1.8498    28.7024 </r>
       <r>    -1.0072     4.5215    29.4113 </r>
       <r>    -0.8504     2.0557    29.7336 </r>
       <r>    -0.6936     2.1796    30.0753 </r>
       <r>    -0.5369     5.6495    30.9610 </r>
       <r>    -0.3801     3.2546    31.4713 </r>
       <r>    -0.2233     3.7606    32.0609 </r>
       <r>    -0.0665     4.2488    32.7270 </r>
       <r>     0.0903     6.8530    33.8014 </r>
       <r>     0.2470     4.2490    34.4676 </r>
       <r>     0.4038     3.2864    34.9828 </r>
       <r>     0.5606     2.5104    35.3764 </r>
       <r>     0.7174     1.9615    35.6839 </r>
       <r>     0.8742     1.2176    35.8748 </r>
       <r>     1.0309     0.7295    35.9892 </r>
       <r>     1.1877     0.0689    36.0000 </r>
       <r>     1.3445     0.0000    36.0000 </r>
       <r>     1.5013     0.0000    36.0000 </r>
       <r>     1.6580     0.0000    36.0000 </r>
       <r>     1.8148     0.0121    36.0019 </r>
       <r>     1.9716     0.0194    36.0049 </r>
       <r>     2.1284     0.0000    36.0049 </r>
       <r>     2.2852     0.0000    36.0049 </r>
       <r>     2.4419     0.0000    36.0049 </r>
       <r>     2.5987     0.0034    36.0055 </r>
       <r>     2.7555     0.2440    36.0437 </r>
       <r>     2.9123     0.0047    36.0444 </r>
       <r>     3.0691     0.0001    36.0445 </r>
       <r>     3.2258     0.3027    36.0919 </r>
       <r>     3.3826     0.0752    36.1037 </r>
       <r>     3.5394     0.0023    36.1041 </r>
       <r>     3.6962     0.1839    36.1329 </r>
       <r>     3.8530     0.0192    36.1359 </r>
       <r>     4.0097     0.5720    36.2256 </r>
       <r>     4.1665     0.0491    36.2333 </r>
       <r>     4.3233     0.7290    36.3476 </r>
       <r>     4.4801     0.0193    36.3506 </r>
       <r>     4.6369     0.0000    36.3506 </r>
       <r>     4.7936     0.0164    36.3532 </r>
       <r>     4.9504     0.7194    36.4660 </r>
       <r>     5.1072     1.0165    36.6253 </r>
       <r>     5.2640     0.2514    36.6648 </r>
       <r>     5.4208     0.6590    36.7681 </r>
       <r>     5.5775     0.2352    36.8049 </r>
       <r>     5.7343     0.5698    36.8943 </r>
       <r>     5.8911     0.4547    36.9656 </r>
       <r>     6.0479     0.5360    37.0496 </r>
       <r>     6.2047     0.7296    37.1640 </r>
       <r>     6.3614     1.7967    37.4457 </r>
       <r>     6.5182     1.2625    37.6436 </r>
       <r>     6.6750     0.7154    37.7558 </r>
       <r>     6.8318     1.3694    37.9705 </r>
       <r>     6.9886     0.8759    38.1078 </r>
       <r>     7.1453     0.8363    38.2389 </r>
       <r>     7.3021     1.1142    38.4136 </r>
       <r>     7.4589     0.8840    38.5522 </r>
       <r>     7.6157     1.6310    38.8079 </r>
       <r>     7.7725     0.8955    38.9483 </r>
       <r>     7.9292     1.1814    39.1335 </r>
       <r>     8.0860     1.2076    39.3228 </r>
       <r>     8.2428     1.0431    39.4864 </r>
       <r>     8.3996     0.5117    39.5666 </r>
       <r>     8.5564     1.0678    39.7340 </r>
       <r>     8.7131     1.5142    39.9714 </r>
       <r>     8.8699     0.6108    40.0671 </r>
       <r>     9.0267     1.7429    40.3404 </r>
       <r>     9.1835     1.1946    40.5277 </r>
       <r>     9.3403     2.1967    40.8721 </r>
       <r>     9.4970     2.1586    41.2105 </r>
       <r>     9.6538     6.1001    42.1669 </r>
       <r>     9.8106     2.8907    42.6201 </r>
       <r>     9.9674     1.6141    42.8731 </r>
       <r>    10.1242     1.3507    43.0849 </r>
       <r>    10.2809     0.4895    43.1616 </r>
       <r>    10.4377     2.2852    43.5199 </r>
       <r>    10.5945     1.0777    43.6889 </r>
       <r>    10.7513     0.0001    43.6889 </r>
       <r>    10.9081     0.2171    43.7229 </r>
       <r>    11.0648     1.9404    44.0271 </r>
       <r>    11.2216     0.5511    44.1136 </r>
       <r>    11.3784     1.0079    44.2716 </r>
       <r>    11.5352     1.0704    44.4394 </r>
       <r>    11.6920     2.7097    44.8642 </r>
       <r>    11.8487     2.4263    45.2446 </r>
       <r>    12.0055     1.0387    45.4075 </r>
       <r>    12.1623     1.9107    45.7070 </r>
       <r>    12.3191     2.1151    46.0386 </r>
       <r>    12.4759     0.6786    46.1450 </r>
       <r>    12.6326     0.9028    46.2866 </r>
       <r>    12.7894     1.3198    46.4935 </r>
       <r>    12.9462     1.4468    46.7203 </r>
       <r>    13.1030     3.1159    47.2088 </r>
       <r>    13.2598     1.2063    47.3979 </r>
       <r>    13.4165     0.7508    47.5156 </r>
       <r>    13.5733     1.9502    47.8214 </r>
       <r>    13.7301     2.0734    48.1465 </r>
       <r>    13.8869     1.3124    48.3522 </r>
       <r>    14.0437     1.7135    48.6209 </r>
       <r>    14.2004     2.5379    49.0187 </r>
       <r>    14.3572     1.8526    49.3092 </r>
       <r>    14.5140     2.5979    49.7165 </r>
       <r>    14.6708     1.4482    49.9435 </r>
       <r>    14.8276     1.6599    50.2038 </r>
       <r>    14.9843     2.0279    50.5217 </r>
       <r>    15.1411     2.9977    50.9917 </r>
       <r>    15.2979     2.2216    51.3400 </r>
       <r>    15.4547     0.8936    51.4801 </r>
       <r>    15.6115     0.9568    51.6301 </r>
       <r>    15.7682     0.9568    51.7801 </r>
       <r>    15.9250     0.8482    51.9131 </r>
       <r>    16.0818     1.2984    52.1167 </r>
       <r>    16.2386     0.3855    52.1771 </r>
       <r>    16.3954     1.0744    52.3456 </r>
       <r>    16.5521     1.7447    52.6191 </r>
       <r>    16.7089     2.7428    53.0491 </r>
       <r>    16.8657     1.4095    53.2701 </r>
       <r>    17.0225     1.0785    53.4392 </r>
       <r>    17.1793     0.5847    53.5309 </r>
       <r>    17.3360     0.1273    53.5508 </r>
       <r>    17.4928     1.6487    53.8093 </r>
       <r>    17.6496     0.1473    53.8324 </r>
       <r>    17.8064     0.8193    53.9608 </r>
       <r>    17.9632     0.3011    54.0080 </r>
       <r>    18.1199     1.4422    54.2341 </r>
       <r>    18.2767     1.4153    54.4560 </r>
       <r>    18.4335     1.1025    54.6289 </r>
       <r>    18.5903     1.0322    54.7907 </r>
       <r>    18.7471     1.3264    54.9987 </r>
       <r>    18.9038     0.9343    55.1451 </r>
       <r>    19.0606     0.0189    55.1481 </r>
       <r>    19.2174     1.2542    55.3447 </r>
       <r>    19.3742     1.1751    55.5290 </r>
       <r>    19.5309     1.2926    55.7316 </r>
       <r>    19.6877     1.5584    55.9760 </r>
       <r>    19.8445     0.6404    56.0764 </r>
       <r>    20.0013     0.3059    56.1243 </r>
       <r>    20.1581     0.2500    56.1635 </r>
       <r>    20.3148     0.1885    56.1931 </r>
       <r>    20.4716     1.2873    56.3949 </r>
       <r>    20.6284     1.2391    56.5892 </r>
       <r>    20.7852     2.4632    56.9753 </r>
       <r>    20.9420     1.3657    57.1894 </r>
       <r>    21.0987     1.8873    57.4853 </r>
       <r>    21.2555     1.3579    57.6982 </r>
       <r>    21.4123     2.0192    58.0148 </r>
       <r>    21.5691     0.9905    58.1701 </r>
       <r>    21.7259     2.7952    58.6083 </r>
       <r>    21.8826     1.1482    58.7883 </r>
       <r>    22.0394     1.0675    58.9557 </r>
       <r>    22.1962     1.0383    59.1185 </r>
       <r>    22.3530     1.8556    59.4094 </r>
       <r>    22.5098     0.9910    59.5647 </r>
       <r>    22.6665     2.8234    60.0074 </r>
       <r>    22.8233     1.9891    60.3193 </r>
       <r>    22.9801     2.5398    60.7174 </r>
       <r>    23.1369     0.7601    60.8366 </r>
       <r>    23.2937     1.2679    61.0354 </r>
       <r>    23.4504     1.9777    61.3455 </r>
       <r>    23.6072     1.9226    61.6469 </r>
       <r>    23.7640     0.8853    61.7857 </r>
       <r>    23.9208     3.1253    62.2757 </r>
       <r>    24.0776     2.6616    62.6929 </r>
       <r>    24.2343     1.1025    62.8658 </r>
       <r>    24.3911     2.2613    63.2203 </r>
       <r>    24.5479     0.5467    63.3060 </r>
       <r>    24.7047     0.7915    63.4301 </r>
       <r>    24.8615     0.4102    63.4944 </r>
       <r>    25.0182     0.8325    63.6249 </r>
       <r>    25.1750     0.1244    63.6444 </r>
       <r>    25.3318     0.1628    63.6700 </r>
       <r>    25.4886     0.4608    63.7422 </r>
       <r>    25.6454     0.4253    63.8089 </r>
       <r>    25.8021     0.7669    63.9291 </r>
       <r>    25.9589     0.4516    63.9999 </r>
       <r>    26.1157     0.0005    64.0000 </r>
       <r>    26.2725     0.0000    64.0000 </r>
       <r>    26.4293     0.0000    64.0000 </r>
       <r>    26.5860     0.0000    64.0000 </r>
       <r>    26.7428     0.0000    64.0000 </r>
       <r>    26.8996     0.0000    64.0000 </r>
       <r>    27.0564     0.0000    64.0000 </r>
       <r>    27.2132     0.0000    64.0000 </r>
       <r>    27.3699     0.0000    64.0000 </r>
       <r>    27.5267     0.0000    64.0000 </r>
       <r>    27.6835     0.0000    64.0000 </r>
       <r>    27.8403     0.0000    64.0000 </r>
       <r>    27.9971     0.0000    64.0000 </r>
      </set>
     </set>
    </array>
   </total>
  </dos>
 </calculation>
 <structure name="finalpos" >
  <crystal>
   <varray name="basis" >
    <v>       3.25969387       0.00000000      -0.00000000 </v>
    <v>      -1.62984694       2.82298008       0.00000000 </v>
    <v>       0.00000000      -0.00000000       5.25995225 </v>
   </varray>
   <i name="volume">     48.40234823 </i>
   <varray name="rec_basis" >
    <v>       0.30677727       0.17711779       0.00000000 </v>
    <v>       0.00000000       0.35423558       0.00000000 </v>
    <v>       0.00000000       0.00000000       0.19011579 </v>
   </varray>
  </crystal>
  <varray name="positions" >
   <v>       0.66666700       0.33333300       0.87974603 </v>
   <v>       0.33333300       0.66666700       0.37974603 </v>
   <v>       0.66666700       0.33333300       0.50056397 </v>
   <v>       0.33333300       0.66666700       0.00056397 </v>
  </varray>
 </structure>
</modeling>
