unknown system                          
           1
     3.289000    0.000000    0.000000
    -1.644500    2.848360    0.000000
     0.000000    0.000000    5.307000
   O    Zn
   2   2
Direct configuration=     1
   0.66666700  0.33333300  0.87976200
   0.33333300  0.66666700  0.37976200
   0.66666700  0.33333300  0.50054800
   0.33333300  0.66666700  0.00054800
unknown system                          
           1
     3.236444    0.000000   -0.000000
    -1.618222    2.802845    0.000000
     0.000000   -0.000000    5.222627
   O    Zn
   2   2
Direct configuration=     2
   0.66666700  0.33333300  0.87973298
   0.33333300  0.66666700  0.37973298
   0.66666700  0.33333300  0.50057702
   0.33333300  0.66666700  0.00057702
unknown system                          
           1
     3.259694    0.000000   -0.000000
    -1.629847    2.822980    0.000000
     0.000000   -0.000000    5.259952
   O    Zn
   2   2
Direct configuration=     3
   0.66666700  0.33333300  0.87974603
   0.33333300  0.66666700  0.37974603
   0.66666700  0.33333300  0.50056397
   0.33333300  0.66666700  0.00056397
