   1   1   0   0
  0.1182421E+02  0.2557186E-09  0.2557186E-09  0.2557186E-09  0.5000000E-15
  0.100000000000000005E-003
  CAR 
 unknown system                          
    309.01650380    -16.57212845  301      7.58663288      1.00000000
    -16.572  0.0000E+00  0.0000E+00
    -15.487  0.0000E+00  0.0000E+00
    -14.402  0.0000E+00  0.0000E+00
    -13.316  0.0000E+00  0.0000E+00
    -12.231  0.0000E+00  0.0000E+00
    -11.146  0.0000E+00  0.0000E+00
    -10.060  0.0000E+00  0.0000E+00
     -8.975  0.0000E+00  0.0000E+00
     -7.890  0.0000E+00  0.0000E+00
     -6.804  0.0000E+00  0.0000E+00
     -5.719  0.0000E+00  0.0000E+00
     -4.634  0.0000E+00  0.0000E+00
     -3.549  0.0000E+00  0.0000E+00
     -2.463 -0.1760E-08 -0.1910E-08
     -1.378  0.1139E-01  0.1237E-01
     -0.293  0.7542E-01  0.9422E-01
      0.793  0.1256E+00  0.2305E+00
      1.878  0.1989E+00  0.4464E+00
      2.963  0.6460E+00  0.1148E+01
      4.048  0.1982E+01  0.3298E+01
      5.134  0.3328E+01  0.6910E+01
      6.219  0.3355E+01  0.1055E+02
      7.304  0.3338E+00  0.1091E+02
      8.390  0.2909E+00  0.1123E+02
      9.475  0.2593E+00  0.1151E+02
     10.560  0.2159E+00  0.1174E+02
     11.646  0.1887E+00  0.1195E+02
     12.731  0.2902E+00  0.1226E+02
     13.816  0.2614E+00  0.1255E+02
     14.901  0.2424E+00  0.1281E+02
     15.987  0.3283E+00  0.1317E+02
     17.072  0.3549E+00  0.1355E+02
     18.157  0.3679E+00  0.1395E+02
     19.243  0.3824E+00  0.1437E+02
     20.328  0.4038E+00  0.1480E+02
     21.413  0.4453E+00  0.1529E+02
     22.499  0.4190E+00  0.1574E+02
     23.584  0.3832E+00  0.1616E+02
     24.669  0.3455E+00  0.1653E+02
     25.754  0.3184E+00  0.1688E+02
     26.840  0.3655E+00  0.1728E+02
     27.925  0.4570E+00  0.1777E+02
     29.010  0.5331E+00  0.1835E+02
     30.096  0.5855E+00  0.1899E+02
     31.181  0.5069E+00  0.1954E+02
     32.266  0.4123E+00  0.1998E+02
     33.351  0.3436E+00  0.2036E+02
     34.437  0.4040E+00  0.2079E+02
     35.522  0.5796E+00  0.2142E+02
     36.607  0.4790E+00  0.2194E+02
     37.693  0.4425E+00  0.2242E+02
     38.778  0.5352E+00  0.2300E+02
     39.863  0.5634E+00  0.2362E+02
     40.949  0.5135E+00  0.2417E+02
     42.034  0.5221E+00  0.2474E+02
     43.119  0.5469E+00  0.2533E+02
     44.204  0.5699E+00  0.2595E+02
     45.290  0.5986E+00  0.2660E+02
     46.375  0.5746E+00  0.2723E+02
     47.460  0.6100E+00  0.2789E+02
     48.546  0.6068E+00  0.2855E+02
     49.631  0.6167E+00  0.2922E+02
     50.716  0.6413E+00  0.2991E+02
     51.801  0.6642E+00  0.3063E+02
     52.887  0.6938E+00  0.3139E+02
     53.972  0.6073E+00  0.3204E+02
     55.057  0.5540E+00  0.3265E+02
     56.143  0.5722E+00  0.3327E+02
     57.228  0.6070E+00  0.3393E+02
     58.313  0.5478E+00  0.3452E+02
     59.399  0.5266E+00  0.3509E+02
     60.484  0.5586E+00  0.3570E+02
     61.569  0.5340E+00  0.3628E+02
     62.654  0.5337E+00  0.3686E+02
     63.740  0.4738E+00  0.3737E+02
     64.825  0.3791E+00  0.3778E+02
     65.910  0.2750E+00  0.3808E+02
     66.996  0.2008E+00  0.3830E+02
     68.081  0.1364E+00  0.3845E+02
     69.166  0.1206E+00  0.3858E+02
     70.252  0.1017E+00  0.3869E+02
     71.337  0.7496E-01  0.3877E+02
     72.422  0.4148E-01  0.3881E+02
     73.507  0.2410E-01  0.3884E+02
     74.593  0.1519E-01  0.3886E+02
     75.678  0.8730E-02  0.3887E+02
     76.763  0.7129E-02  0.3887E+02
     77.849  0.5357E-02  0.3888E+02
     78.934  0.4744E-02  0.3888E+02
     80.019  0.2902E-02  0.3889E+02
     81.104  0.1461E-02  0.3889E+02
     82.190  0.1160E-02  0.3889E+02
     83.275  0.1561E-02  0.3889E+02
     84.360  0.3818E-03  0.3889E+02
     85.446  0.2453E-03  0.3889E+02
     86.531  0.2197E-03  0.3889E+02
     87.616  0.4120E-03  0.3889E+02
     88.702  0.4870E-04  0.3889E+02
     89.787  0.1899E-03  0.3889E+02
     90.872  0.5249E-03  0.3889E+02
     91.957  0.2066E-03  0.3889E+02
     93.043  0.0000E+00  0.3889E+02
     94.128  0.0000E+00  0.3889E+02
     95.213  0.0000E+00  0.3889E+02
     96.299  0.0000E+00  0.3889E+02
     97.384 -0.4320E-15  0.3889E+02
     98.469  0.3961E-04  0.3889E+02
     99.554  0.2208E-03  0.3889E+02
    100.640 -0.4410E-05  0.3889E+02
    101.725  0.0000E+00  0.3889E+02
    102.810  0.0000E+00  0.3889E+02
    103.896 -0.1423E-16  0.3889E+02
    104.981  0.8255E-04  0.3890E+02
    106.066  0.1222E-03  0.3890E+02
    107.152 -0.5646E-09  0.3890E+02
    108.237  0.5151E-04  0.3890E+02
    109.322  0.2052E-03  0.3890E+02
    110.407  0.5595E-03  0.3890E+02
    111.493  0.4610E-03  0.3890E+02
    112.578  0.1929E-03  0.3890E+02
    113.663  0.8198E-03  0.3890E+02
    114.749  0.1140E-02  0.3890E+02
    115.834  0.5174E-06  0.3890E+02
    116.919  0.8176E-03  0.3890E+02
    118.005  0.5968E-03  0.3890E+02
    119.090  0.2232E-03  0.3890E+02
    120.175  0.0000E+00  0.3890E+02
    121.260 -0.1738E-09  0.3890E+02
    122.346  0.4191E-03  0.3890E+02
    123.431 -0.9545E-05  0.3890E+02
    124.516  0.0000E+00  0.3890E+02
    125.602 -0.4626E-10  0.3890E+02
    126.687  0.8067E-03  0.3890E+02
    127.772  0.1233E-04  0.3890E+02
    128.857 -0.1514E-14  0.3890E+02
    129.943  0.2925E-03  0.3890E+02
    131.028  0.1170E-03  0.3890E+02
    132.113  0.0000E+00  0.3890E+02
    133.199  0.0000E+00  0.3890E+02
    134.284  0.0000E+00  0.3890E+02
    135.369 -0.1570E-04  0.3890E+02
    136.455  0.6285E-03  0.3890E+02
    137.540  0.2286E-03  0.3890E+02
    138.625  0.1403E-02  0.3890E+02
    139.710  0.2071E-03  0.3891E+02
    140.796  0.6259E-03  0.3891E+02
    141.881  0.1431E-02  0.3891E+02
    142.966  0.5085E-03  0.3891E+02
    144.052 -0.1760E-06  0.3891E+02
    145.137  0.1975E-03  0.3891E+02
    146.222  0.1239E-02  0.3891E+02
    147.307  0.2015E-03  0.3891E+02
    148.393  0.6006E-03  0.3891E+02
    149.478  0.1401E-02  0.3891E+02
    150.563  0.3194E-03  0.3891E+02
    151.649 -0.3278E-12  0.3891E+02
    152.734  0.2073E-03  0.3891E+02
    153.819 -0.2496E-05  0.3891E+02
    154.905  0.1720E-03  0.3891E+02
    155.990  0.3271E-04  0.3891E+02
    157.075  0.8382E-03  0.3891E+02
    158.160 -0.1921E-04  0.3891E+02
    159.246 -0.4037E-16  0.3891E+02
    160.331  0.1761E-03  0.3891E+02
    161.416  0.2335E-03  0.3891E+02
    162.502  0.0000E+00  0.3891E+02
    163.587  0.0000E+00  0.3891E+02
    164.672  0.0000E+00  0.3891E+02
    165.758  0.0000E+00  0.3891E+02
    166.843  0.0000E+00  0.3891E+02
    167.928  0.0000E+00  0.3891E+02
    169.013  0.0000E+00  0.3891E+02
    170.099  0.0000E+00  0.3891E+02
    171.184  0.0000E+00  0.3891E+02
    172.269  0.0000E+00  0.3891E+02
    173.355 -0.1441E-04  0.3891E+02
    174.440  0.4239E-03  0.3891E+02
    175.525  0.0000E+00  0.3891E+02
    176.610  0.0000E+00  0.3891E+02
    177.696  0.0000E+00  0.3891E+02
    178.781  0.0000E+00  0.3891E+02
    179.866  0.0000E+00  0.3891E+02
    180.952  0.0000E+00  0.3891E+02
    182.037  0.0000E+00  0.3891E+02
    183.122  0.0000E+00  0.3891E+02
    184.208  0.0000E+00  0.3891E+02
    185.293  0.0000E+00  0.3891E+02
    186.378  0.0000E+00  0.3891E+02
    187.463  0.0000E+00  0.3891E+02
    188.549  0.0000E+00  0.3891E+02
    189.634  0.0000E+00  0.3891E+02
    190.719  0.0000E+00  0.3891E+02
    191.805  0.0000E+00  0.3891E+02
    192.890 -0.2312E-05  0.3891E+02
    193.975  0.4118E-03  0.3891E+02
    195.060  0.0000E+00  0.3891E+02
    196.146  0.0000E+00  0.3891E+02
    197.231  0.0000E+00  0.3891E+02
    198.316  0.0000E+00  0.3891E+02
    199.402  0.0000E+00  0.3891E+02
    200.487  0.0000E+00  0.3891E+02
    201.572  0.0000E+00  0.3891E+02
    202.658  0.0000E+00  0.3891E+02
    203.743  0.0000E+00  0.3891E+02
    204.828  0.0000E+00  0.3891E+02
    205.913  0.0000E+00  0.3891E+02
    206.999  0.0000E+00  0.3891E+02
    208.084  0.0000E+00  0.3891E+02
    209.169  0.0000E+00  0.3891E+02
    210.255  0.0000E+00  0.3891E+02
    211.340 -0.8312E-06  0.3891E+02
    212.425  0.4104E-03  0.3892E+02
    213.511  0.4279E-03  0.3892E+02
    214.596  0.1765E-02  0.3892E+02
    215.681  0.1082E-02  0.3892E+02
    216.766  0.1151E-02  0.3892E+02
    217.852  0.5687E-03  0.3892E+02
    218.937  0.7051E-03  0.3892E+02
    220.022  0.6332E-03  0.3892E+02
    221.108  0.1265E-02  0.3892E+02
    222.193  0.7316E-03  0.3892E+02
    223.278  0.1915E-02  0.3893E+02
    224.363  0.1463E-02  0.3893E+02
    225.449  0.1491E-02  0.3893E+02
    226.534  0.1188E-02  0.3893E+02
    227.619  0.1379E-02  0.3893E+02
    228.705  0.9705E-03  0.3893E+02
    229.790  0.1354E-02  0.3893E+02
    230.875  0.1597E-02  0.3894E+02
    231.961  0.2046E-02  0.3894E+02
    233.046  0.3385E-02  0.3894E+02
    234.131  0.3730E-02  0.3895E+02
    235.216  0.4970E-02  0.3895E+02
    236.302  0.6162E-02  0.3896E+02
    237.387  0.7984E-02  0.3897E+02
    238.472  0.9253E-02  0.3898E+02
    239.558  0.6306E-02  0.3898E+02
    240.643  0.8108E-02  0.3899E+02
    241.728  0.1022E-01  0.3900E+02
    242.813  0.1269E-01  0.3902E+02
    243.899  0.1004E-01  0.3903E+02
    244.984  0.1420E-01  0.3904E+02
    246.069  0.1795E-01  0.3906E+02
    247.155  0.1964E-01  0.3909E+02
    248.240  0.1640E-01  0.3910E+02
    249.325  0.2782E-01  0.3913E+02
    250.411  0.2319E-01  0.3916E+02
    251.496  0.2541E-01  0.3919E+02
    252.581  0.3603E-01  0.3922E+02
    253.666  0.3986E-01  0.3927E+02
    254.752  0.5877E-01  0.3933E+02
    255.837  0.7561E-01  0.3941E+02
    256.922  0.8903E-01  0.3951E+02
    258.008  0.1294E+00  0.3965E+02
    259.093  0.1567E+00  0.3982E+02
    260.178  0.1934E+00  0.4003E+02
    261.264  0.2329E+00  0.4028E+02
    262.349  0.2940E+00  0.4060E+02
    263.434  0.3286E+00  0.4096E+02
    264.519  0.3680E+00  0.4136E+02
    265.605  0.4422E+00  0.4184E+02
    266.690  0.4830E+00  0.4236E+02
    267.775  0.5241E+00  0.4293E+02
    268.861  0.5800E+00  0.4356E+02
    269.946  0.6225E+00  0.4424E+02
    271.031  0.6681E+00  0.4496E+02
    272.116  0.7367E+00  0.4576E+02
    273.202  0.8024E+00  0.4663E+02
    274.287  0.8363E+00  0.4754E+02
    275.372  0.8731E+00  0.4849E+02
    276.458  0.9270E+00  0.4949E+02
    277.543  0.9993E+00  0.5058E+02
    278.628  0.1005E+01  0.5167E+02
    279.714  0.1051E+01  0.5281E+02
    280.799  0.1065E+01  0.5397E+02
    281.884  0.1090E+01  0.5515E+02
    282.969  0.1127E+01  0.5637E+02
    284.055  0.1108E+01  0.5757E+02
    285.140  0.1162E+01  0.5884E+02
    286.225  0.1199E+01  0.6014E+02
    287.311  0.1143E+01  0.6138E+02
    288.396  0.1056E+01  0.6252E+02
    289.481  0.7057E+00  0.6329E+02
    290.566  0.3734E+00  0.6370E+02
    291.652  0.1840E+00  0.6389E+02
    292.737  0.8213E-01  0.6398E+02
    293.822  0.1405E-01  0.6400E+02
    294.908  0.6745E-03  0.6400E+02
    295.993  0.0000E+00  0.6400E+02
    297.078  0.0000E+00  0.6400E+02
    298.164  0.0000E+00  0.6400E+02
    299.249  0.0000E+00  0.6400E+02
    300.334  0.0000E+00  0.6400E+02
    301.419  0.0000E+00  0.6400E+02
    302.505  0.0000E+00  0.6400E+02
    303.590  0.0000E+00  0.6400E+02
    304.675  0.0000E+00  0.6400E+02
    305.761  0.0000E+00  0.6400E+02
    306.846  0.0000E+00  0.6400E+02
    307.931  0.0000E+00  0.6400E+02
    309.017  0.0000E+00  0.6400E+02
