   7   7   1   0
  0.1413867E+02  0.2496087E-09  0.2496087E-09  0.1834242E-08  0.5000000E-15
  1.000000000000000E-004
  CAR 
 CO adsorption on Ni(111)                
     26.61917521    -25.37983532  301      1.72265971      1.00000000
    -25.380  0.0000E+00  0.0000E+00
    -25.207  0.0000E+00  0.0000E+00
    -25.033  0.0000E+00  0.0000E+00
    -24.860  0.0000E+00  0.0000E+00
    -24.687  0.0000E+00  0.0000E+00
    -24.513  0.0000E+00  0.0000E+00
    -24.340  0.0000E+00  0.0000E+00
    -24.167  0.0000E+00  0.0000E+00
    -23.993  0.0000E+00  0.0000E+00
    -23.820  0.0000E+00  0.0000E+00
    -23.647  0.0000E+00  0.0000E+00
    -23.473  0.0000E+00  0.0000E+00
    -23.300  0.0000E+00  0.0000E+00
    -23.127  0.0000E+00  0.0000E+00
    -22.953  0.4637E+00  0.1461E-01
    -22.780  0.6476E+00  0.1316E+00
    -22.607  0.7836E+00  0.2562E+00
    -22.433  0.8197E+00  0.3930E+00
    -22.260  0.9221E+00  0.5440E+00
    -22.087  0.1146E+01  0.7207E+00
    -21.913  0.1394E+01  0.9405E+00
    -21.740  0.2431E+01  0.1229E+01
    -21.567  0.2602E+01  0.1764E+01
    -21.393  0.0000E+00  0.2000E+01
    -21.220  0.0000E+00  0.2000E+01
    -21.047  0.0000E+00  0.2000E+01
    -20.873  0.0000E+00  0.2000E+01
    -20.700  0.0000E+00  0.2000E+01
    -20.527  0.0000E+00  0.2000E+01
    -20.353  0.0000E+00  0.2000E+01
    -20.180  0.0000E+00  0.2000E+01
    -20.007  0.0000E+00  0.2000E+01
    -19.833  0.0000E+00  0.2000E+01
    -19.660  0.0000E+00  0.2000E+01
    -19.487  0.0000E+00  0.2000E+01
    -19.313  0.0000E+00  0.2000E+01
    -19.140  0.0000E+00  0.2000E+01
    -18.967  0.0000E+00  0.2000E+01
    -18.793  0.0000E+00  0.2000E+01
    -18.620  0.0000E+00  0.2000E+01
    -18.447  0.0000E+00  0.2000E+01
    -18.273  0.0000E+00  0.2000E+01
    -18.100  0.0000E+00  0.2000E+01
    -17.927  0.0000E+00  0.2000E+01
    -17.753  0.0000E+00  0.2000E+01
    -17.580  0.0000E+00  0.2000E+01
    -17.407  0.0000E+00  0.2000E+01
    -17.233  0.0000E+00  0.2000E+01
    -17.060  0.0000E+00  0.2000E+01
    -16.887  0.0000E+00  0.2000E+01
    -16.713  0.0000E+00  0.2000E+01
    -16.540  0.0000E+00  0.2000E+01
    -16.367  0.0000E+00  0.2000E+01
    -16.193  0.0000E+00  0.2000E+01
    -16.020  0.0000E+00  0.2000E+01
    -15.847  0.0000E+00  0.2000E+01
    -15.673  0.0000E+00  0.2000E+01
    -15.500  0.0000E+00  0.2000E+01
    -15.327  0.0000E+00  0.2000E+01
    -15.153  0.0000E+00  0.2000E+01
    -14.980  0.0000E+00  0.2000E+01
    -14.807  0.0000E+00  0.2000E+01
    -14.633  0.0000E+00  0.2000E+01
    -14.460  0.0000E+00  0.2000E+01
    -14.287  0.0000E+00  0.2000E+01
    -14.113  0.0000E+00  0.2000E+01
    -13.940  0.0000E+00  0.2000E+01
    -13.767  0.0000E+00  0.2000E+01
    -13.593  0.0000E+00  0.2000E+01
    -13.420  0.0000E+00  0.2000E+01
    -13.247  0.0000E+00  0.2000E+01
    -13.073  0.0000E+00  0.2000E+01
    -12.900  0.0000E+00  0.2000E+01
    -12.727  0.0000E+00  0.2000E+01
    -12.553  0.0000E+00  0.2000E+01
    -12.380  0.0000E+00  0.2000E+01
    -12.207  0.0000E+00  0.2000E+01
    -12.033  0.0000E+00  0.2000E+01
    -11.860  0.0000E+00  0.2000E+01
    -11.687  0.0000E+00  0.2000E+01
    -11.513  0.0000E+00  0.2000E+01
    -11.340  0.0000E+00  0.2000E+01
    -11.167  0.0000E+00  0.2000E+01
    -10.993  0.0000E+00  0.2000E+01
    -10.820  0.0000E+00  0.2000E+01
    -10.647  0.0000E+00  0.2000E+01
    -10.473  0.0000E+00  0.2000E+01
    -10.300  0.0000E+00  0.2000E+01
    -10.127  0.0000E+00  0.2000E+01
     -9.953  0.3973E+00  0.2034E+01
     -9.780  0.3332E+00  0.2104E+01
     -9.607  0.3744E+00  0.2165E+01
     -9.433  0.4155E+00  0.2233E+01
     -9.260  0.4109E+00  0.2306E+01
     -9.087  0.4150E+00  0.2376E+01
     -8.913  0.4405E+00  0.2451E+01
     -8.740  0.4660E+00  0.2529E+01
     -8.567  0.4915E+00  0.2612E+01
     -8.393  0.5451E+00  0.2702E+01
     -8.220  0.5976E+00  0.2801E+01
     -8.047  0.6839E+00  0.2912E+01
     -7.874  0.7702E+00  0.3038E+01
     -7.700  0.9487E+00  0.3181E+01
     -7.527  0.1484E+01  0.3484E+01
     -7.354  0.7643E+00  0.3650E+01
     -7.180  0.6676E+00  0.3774E+01
     -7.007  0.4173E+00  0.3874E+01
     -6.834  0.1858E+01  0.3969E+01
     -6.660  0.2387E+01  0.4327E+01
     -6.487  0.4067E+01  0.4820E+01
     -6.314  0.2399E+01  0.5328E+01
     -6.140  0.5550E+01  0.5859E+01
     -5.967  0.2660E+00  0.6099E+01
     -5.794  0.3207E+00  0.6150E+01
     -5.620  0.3755E+00  0.6210E+01
     -5.447  0.4468E+00  0.6280E+01
     -5.274  0.7473E+00  0.6383E+01
     -5.100  0.7928E+00  0.6532E+01
     -4.927  0.9508E+00  0.6682E+01
     -4.754  0.1732E+01  0.6934E+01
     -4.580  0.2181E+01  0.7273E+01
     -4.407  0.3522E+01  0.8174E+01
     -4.234  0.6376E+00  0.8402E+01
     -4.060  0.1609E+01  0.8796E+01
     -3.887  0.1905E+01  0.9192E+01
     -3.714  0.2514E+01  0.9565E+01
     -3.540  0.2092E+01  0.9958E+01
     -3.367  0.1920E+01  0.1032E+02
     -3.194  0.1191E+01  0.1060E+02
     -3.020  0.4245E+01  0.1105E+02
     -2.847  0.1759E+01  0.1170E+02
     -2.674  0.3351E+01  0.1207E+02
     -2.500  0.4695E+01  0.1284E+02
     -2.327  0.5674E+01  0.1388E+02
     -2.154  0.6517E+01  0.1490E+02
     -1.980  0.5712E+01  0.1581E+02
     -1.807  0.7957E+01  0.1698E+02
     -1.634  0.9445E+01  0.1854E+02
     -1.460  0.8956E+01  0.2016E+02
     -1.287  0.5670E+01  0.2152E+02
     -1.114  0.7011E+01  0.2319E+02
     -0.940  0.4420E+01  0.2454E+02
     -0.767  0.9768E+01  0.2607E+02
     -0.594  0.1083E+02  0.2806E+02
     -0.420  0.1247E+02  0.3019E+02
     -0.247  0.1306E+02  0.3259E+02
     -0.074  0.1785E+02  0.3539E+02
      0.100  0.1208E+02  0.3802E+02
      0.273  0.1540E+02  0.4050E+02
      0.446  0.8121E+01  0.4245E+02
      0.620  0.9930E+01  0.4464E+02
      0.793  0.1029E+02  0.4681E+02
      0.966  0.1266E+02  0.4872E+02
      1.140  0.1361E+02  0.5095E+02
      1.313  0.1491E+02  0.5324E+02
      1.486  0.1389E+02  0.5577E+02
      1.660  0.2196E+02  0.5899E+02
      1.833  0.5289E+01  0.6130E+02
      2.006  0.3669E+01  0.6247E+02
      2.180  0.2898E+01  0.6303E+02
      2.353  0.2631E+01  0.6349E+02
      2.526  0.2648E+01  0.6396E+02
      2.700  0.2005E+01  0.6437E+02
      2.873  0.1862E+01  0.6471E+02
      3.046  0.1604E+01  0.6501E+02
      3.220  0.1468E+01  0.6528E+02
      3.393  0.1471E+01  0.6553E+02
      3.566  0.1511E+01  0.6579E+02
      3.740  0.6995E+01  0.6619E+02
      3.913  0.2462E+01  0.6684E+02
      4.086  0.1774E+01  0.6717E+02
      4.260  0.1125E+01  0.6745E+02
      4.433  0.2813E+01  0.6775E+02
      4.606  0.2164E+01  0.6823E+02
      4.780  0.1218E+01  0.6851E+02
      4.953  0.9044E+00  0.6876E+02
      5.126  0.9192E+00  0.6892E+02
      5.300  0.1402E+01  0.6929E+02
      5.473  0.1327E+01  0.6952E+02
      5.646  0.1714E+01  0.6978E+02
      5.820  0.2085E+01  0.7010E+02
      5.993  0.3622E+01  0.7064E+02
      6.166  0.2202E+01  0.7112E+02
      6.340  0.1587E+01  0.7145E+02
      6.513  0.1151E+01  0.7168E+02
      6.686  0.1928E+01  0.7193E+02
      6.860  0.2097E+01  0.7232E+02
      7.033  0.2612E+01  0.7270E+02
      7.206  0.3172E+01  0.7316E+02
      7.380  0.6812E+00  0.7357E+02
      7.553  0.1202E+01  0.7372E+02
      7.726  0.2322E+01  0.7409E+02
      7.900  0.1798E+01  0.7438E+02
      8.073  0.6473E+00  0.7458E+02
      8.246  0.1152E+01  0.7479E+02
      8.420  0.1595E+01  0.7502E+02
      8.593  0.2094E+01  0.7534E+02
      8.766  0.2027E+01  0.7575E+02
      8.940  0.1680E+01  0.7615E+02
      9.113  0.1777E+01  0.7643E+02
      9.286  0.1776E+01  0.7675E+02
      9.460  0.1873E+01  0.7707E+02
      9.633  0.1986E+01  0.7740E+02
      9.806  0.1836E+01  0.7772E+02
      9.979  0.1863E+01  0.7811E+02
     10.153  0.1671E+01  0.7841E+02
     10.326  0.1732E+01  0.7870E+02
     10.499  0.1543E+01  0.7901E+02
     10.673  0.1457E+01  0.7927E+02
     10.846  0.1627E+01  0.7953E+02
     11.019  0.2016E+01  0.7985E+02
     11.193  0.1500E+01  0.8015E+02
     11.366  0.1398E+01  0.8042E+02
     11.539  0.2003E+01  0.8066E+02
     11.713  0.3169E+01  0.8108E+02
     11.886  0.1845E+01  0.8154E+02
     12.059  0.2479E+01  0.8189E+02
     12.233  0.2815E+01  0.8242E+02
     12.406  0.2089E+01  0.8286E+02
     12.579  0.1492E+01  0.8315E+02
     12.753  0.1489E+01  0.8341E+02
     12.926  0.3565E+01  0.8375E+02
     13.099  0.2691E+01  0.8422E+02
     13.273  0.2489E+01  0.8469E+02
     13.446  0.1886E+01  0.8507E+02
     13.619  0.2234E+01  0.8536E+02
     13.793  0.3622E+01  0.8623E+02
     13.966  0.1309E+01  0.8664E+02
     14.139  0.2144E+01  0.8703E+02
     14.313  0.2181E+01  0.8741E+02
     14.486  0.2564E+01  0.8782E+02
     14.659  0.2926E+01  0.8828E+02
     14.833  0.3071E+01  0.8877E+02
     15.006  0.2648E+01  0.8930E+02
     15.179  0.2616E+01  0.8985E+02
     15.353  0.3569E+01  0.9031E+02
     15.526  0.3038E+01  0.9088E+02
     15.699  0.2983E+01  0.9138E+02
     15.873  0.2867E+01  0.9187E+02
     16.046  0.1911E+01  0.9233E+02
     16.219  0.1967E+01  0.9267E+02
     16.393  0.1944E+01  0.9300E+02
     16.566  0.1682E+01  0.9333E+02
     16.739  0.1170E+01  0.9358E+02
     16.913  0.9228E+00  0.9375E+02
     17.086  0.8832E+00  0.9391E+02
     17.259  0.8365E+00  0.9406E+02
     17.433  0.7884E+00  0.9420E+02
     17.606  0.7398E+00  0.9433E+02
     17.779  0.6983E+00  0.9445E+02
     17.953  0.6566E+00  0.9457E+02
     18.126  0.6148E+00  0.9468E+02
     18.299  0.5730E+00  0.9478E+02
     18.473  0.5371E+00  0.9488E+02
     18.646  0.5220E+00  0.9497E+02
     18.819  0.5101E+00  0.9506E+02
     18.993  0.5292E+00  0.9515E+02
     19.166  0.7362E+00  0.9526E+02
     19.339  0.3224E+00  0.9539E+02
     19.513  0.3122E+00  0.9545E+02
     19.686  0.3042E+00  0.9550E+02
     19.859  0.4053E+00  0.9556E+02
     20.033  0.6314E+00  0.9565E+02
     20.206  0.1910E+00  0.9572E+02
     20.379  0.1840E+00  0.9575E+02
     20.553  0.1771E+00  0.9578E+02
     20.726  0.1702E+00  0.9581E+02
     20.899  0.2435E+00  0.9585E+02
     21.073  0.2011E+00  0.9589E+02
     21.246  0.1231E+00  0.9592E+02
     21.419  0.8269E-01  0.9594E+02
     21.593  0.4230E-01  0.9595E+02
     21.766  0.3771E-01  0.9595E+02
     21.939  0.3508E-01  0.9596E+02
     22.113  0.3246E-01  0.9597E+02
     22.286  0.2983E-01  0.9597E+02
     22.459  0.2721E-01  0.9598E+02
     22.633  0.2458E-01  0.9598E+02
     22.806  0.2196E-01  0.9598E+02
     22.979  0.1933E-01  0.9599E+02
     23.153  0.1671E-01  0.9599E+02
     23.326  0.1408E-01  0.9599E+02
     23.499  0.1146E-01  0.9600E+02
     23.673  0.8830E-02  0.9600E+02
     23.846  0.6205E-02  0.9600E+02
     24.019  0.3580E-02  0.9600E+02
     24.193  0.9546E-03  0.9600E+02
     24.366  0.0000E+00  0.9600E+02
     24.539  0.0000E+00  0.9600E+02
     24.713  0.0000E+00  0.9600E+02
     24.886  0.0000E+00  0.9600E+02
     25.059  0.0000E+00  0.9600E+02
     25.233  0.0000E+00  0.9600E+02
     25.406  0.0000E+00  0.9600E+02
     25.579  0.0000E+00  0.9600E+02
     25.753  0.0000E+00  0.9600E+02
     25.926  0.0000E+00  0.9600E+02
     26.099  0.0000E+00  0.9600E+02
     26.273  0.0000E+00  0.9600E+02
     26.446  0.0000E+00  0.9600E+02
     26.619  0.0000E+00  0.9600E+02
     26.61917521    -25.37983532  301      1.72265971      1.00000000
    -25.380  0.0000E+00  0.0000E+00  0.0000E+00  0.0000E+00  0.0000E+00  0.0000E+00  0.0000E+00  0.0000E+00  0.0000E+00
    -25.207  0.0000E+00  0.0000E+00  0.0000E+00  0.0000E+00  0.0000E+00  0.0000E+00  0.0000E+00  0.0000E+00  0.0000E+00
    -25.033  0.0000E+00  0.0000E+00  0.0000E+00  0.0000E+00  0.0000E+00  0.0000E+00  0.0000E+00  0.0000E+00  0.0000E+00
    -24.860  0.0000E+00  0.0000E+00  0.0000E+00  0.0000E+00  0.0000E+00  0.0000E+00  0.0000E+00  0.0000E+00  0.0000E+00
    -24.687  0.0000E+00  0.0000E+00  0.0000E+00  0.0000E+00  0.0000E+00  0.0000E+00  0.0000E+00  0.0000E+00  0.0000E+00
    -24.513  0.0000E+00  0.0000E+00  0.0000E+00  0.0000E+00  0.0000E+00  0.0000E+00  0.0000E+00  0.0000E+00  0.0000E+00
    -24.340  0.0000E+00  0.0000E+00  0.0000E+00  0.0000E+00  0.0000E+00  0.0000E+00  0.0000E+00  0.0000E+00  0.0000E+00
    -24.167  0.0000E+00  0.0000E+00  0.0000E+00  0.0000E+00  0.0000E+00  0.0000E+00  0.0000E+00  0.0000E+00  0.0000E+00
    -23.993  0.0000E+00  0.0000E+00  0.0000E+00  0.0000E+00  0.0000E+00  0.0000E+00  0.0000E+00  0.0000E+00  0.0000E+00
    -23.820  0.0000E+00  0.0000E+00  0.0000E+00  0.0000E+00  0.0000E+00  0.0000E+00  0.0000E+00  0.0000E+00  0.0000E+00
    -23.647  0.0000E+00  0.0000E+00  0.0000E+00  0.0000E+00  0.0000E+00  0.0000E+00  0.0000E+00  0.0000E+00  0.0000E+00
    -23.473  0.0000E+00  0.0000E+00  0.0000E+00  0.0000E+00  0.0000E+00  0.0000E+00  0.0000E+00  0.0000E+00  0.0000E+00
    -23.300  0.0000E+00  0.0000E+00  0.0000E+00  0.0000E+00  0.0000E+00  0.0000E+00  0.0000E+00  0.0000E+00  0.0000E+00
    -23.127  0.0000E+00  0.0000E+00  0.0000E+00  0.0000E+00  0.0000E+00  0.0000E+00  0.0000E+00  0.0000E+00  0.0000E+00
    -22.953  0.1218E-10  0.5437E-11  0.1112E-10  0.1614E-10  0.2896E-09  0.1406E-09  0.3502E-09  0.4190E-09  0.9657E-10
    -22.780  0.1254E-11  0.5132E-10  0.1911E-10  0.5506E-10  0.4438E-09  0.2090E-09  0.3149E-09  0.5472E-09  0.1987E-09
    -22.607  0.1777E-11  0.7481E-10  0.2943E-10  0.8941E-10  0.3687E-09  0.1555E-09  0.4688E-09  0.3356E-09  0.1942E-09
    -22.433  0.3478E-11  0.6821E-10  0.7318E-10  0.1969E-09  0.1513E-09  0.1849E-09  0.6344E-09  0.3693E-10  0.1048E-09
    -22.260  0.6747E-11  0.5066E-10  0.2245E-09  0.2407E-09  0.1430E-09  0.2493E-09  0.7154E-09  0.7584E-10  0.7517E-10
    -22.087  0.9830E-11  0.3543E-10  0.3739E-09  0.2926E-09  0.1688E-09  0.3245E-09  0.7176E-09  0.3909E-09  0.1032E-09
    -21.913  0.1155E-10  0.3578E-10  0.4705E-09  0.2672E-09  0.2370E-09  0.3135E-09  0.6186E-09  0.8925E-09  0.1873E-09
    -21.740  0.1311E-10  0.1282E-09  0.7925E-09  0.3364E-09  0.5082E-09  0.3366E-09  0.6906E-09  0.2479E-08  0.3739E-09
    -21.567  0.8204E-11  0.3194E-09  0.1373E-08  0.4968E-09  0.4846E-09  0.2854E-09  0.5067E-09  0.3020E-08  0.1805E-09
    -21.393  0.0000E+00  0.0000E+00  0.0000E+00  0.0000E+00  0.0000E+00  0.0000E+00  0.0000E+00  0.0000E+00  0.0000E+00
    -21.220  0.0000E+00  0.0000E+00  0.0000E+00  0.0000E+00  0.0000E+00  0.0000E+00  0.0000E+00  0.0000E+00  0.0000E+00
    -21.047  0.0000E+00  0.0000E+00  0.0000E+00  0.0000E+00  0.0000E+00  0.0000E+00  0.0000E+00  0.0000E+00  0.0000E+00
    -20.873  0.0000E+00  0.0000E+00  0.0000E+00  0.0000E+00  0.0000E+00  0.0000E+00  0.0000E+00  0.0000E+00  0.0000E+00
    -20.700  0.0000E+00  0.0000E+00  0.0000E+00  0.0000E+00  0.0000E+00  0.0000E+00  0.0000E+00  0.0000E+00  0.0000E+00
    -20.527  0.0000E+00  0.0000E+00  0.0000E+00  0.0000E+00  0.0000E+00  0.0000E+00  0.0000E+00  0.0000E+00  0.0000E+00
    -20.353  0.0000E+00  0.0000E+00  0.0000E+00  0.0000E+00  0.0000E+00  0.0000E+00  0.0000E+00  0.0000E+00  0.0000E+00
    -20.180  0.0000E+00  0.0000E+00  0.0000E+00  0.0000E+00  0.0000E+00  0.0000E+00  0.0000E+00  0.0000E+00  0.0000E+00
    -20.007  0.0000E+00  0.0000E+00  0.0000E+00  0.0000E+00  0.0000E+00  0.0000E+00  0.0000E+00  0.0000E+00  0.0000E+00
    -19.833  0.0000E+00  0.0000E+00  0.0000E+00  0.0000E+00  0.0000E+00  0.0000E+00  0.0000E+00  0.0000E+00  0.0000E+00
    -19.660  0.0000E+00  0.0000E+00  0.0000E+00  0.0000E+00  0.0000E+00  0.0000E+00  0.0000E+00  0.0000E+00  0.0000E+00
    -19.487  0.0000E+00  0.0000E+00  0.0000E+00  0.0000E+00  0.0000E+00  0.0000E+00  0.0000E+00  0.0000E+00  0.0000E+00
    -19.313  0.0000E+00  0.0000E+00  0.0000E+00  0.0000E+00  0.0000E+00  0.0000E+00  0.0000E+00  0.0000E+00  0.0000E+00
    -19.140  0.0000E+00  0.0000E+00  0.0000E+00  0.0000E+00  0.0000E+00  0.0000E+00  0.0000E+00  0.0000E+00  0.0000E+00
    -18.967  0.0000E+00  0.0000E+00  0.0000E+00  0.0000E+00  0.0000E+00  0.0000E+00  0.0000E+00  0.0000E+00  0.0000E+00
    -18.793  0.0000E+00  0.0000E+00  0.0000E+00  0.0000E+00  0.0000E+00  0.0000E+00  0.0000E+00  0.0000E+00  0.0000E+00
    -18.620  0.0000E+00  0.0000E+00  0.0000E+00  0.0000E+00  0.0000E+00  0.0000E+00  0.0000E+00  0.0000E+00  0.0000E+00
    -18.447  0.0000E+00  0.0000E+00  0.0000E+00  0.0000E+00  0.0000E+00  0.0000E+00  0.0000E+00  0.0000E+00  0.0000E+00
    -18.273  0.0000E+00  0.0000E+00  0.0000E+00  0.0000E+00  0.0000E+00  0.0000E+00  0.0000E+00  0.0000E+00  0.0000E+00
    -18.100  0.0000E+00  0.0000E+00  0.0000E+00  0.0000E+00  0.0000E+00  0.0000E+00  0.0000E+00  0.0000E+00  0.0000E+00
    -17.927  0.0000E+00  0.0000E+00  0.0000E+00  0.0000E+00  0.0000E+00  0.0000E+00  0.0000E+00  0.0000E+00  0.0000E+00
    -17.753  0.0000E+00  0.0000E+00  0.0000E+00  0.0000E+00  0.0000E+00  0.0000E+00  0.0000E+00  0.0000E+00  0.0000E+00
    -17.580  0.0000E+00  0.0000E+00  0.0000E+00  0.0000E+00  0.0000E+00  0.0000E+00  0.0000E+00  0.0000E+00  0.0000E+00
    -17.407  0.0000E+00  0.0000E+00  0.0000E+00  0.0000E+00  0.0000E+00  0.0000E+00  0.0000E+00  0.0000E+00  0.0000E+00
    -17.233  0.0000E+00  0.0000E+00  0.0000E+00  0.0000E+00  0.0000E+00  0.0000E+00  0.0000E+00  0.0000E+00  0.0000E+00
    -17.060  0.0000E+00  0.0000E+00  0.0000E+00  0.0000E+00  0.0000E+00  0.0000E+00  0.0000E+00  0.0000E+00  0.0000E+00
    -16.887  0.0000E+00  0.0000E+00  0.0000E+00  0.0000E+00  0.0000E+00  0.0000E+00  0.0000E+00  0.0000E+00  0.0000E+00
    -16.713  0.0000E+00  0.0000E+00  0.0000E+00  0.0000E+00  0.0000E+00  0.0000E+00  0.0000E+00  0.0000E+00  0.0000E+00
    -16.540  0.0000E+00  0.0000E+00  0.0000E+00  0.0000E+00  0.0000E+00  0.0000E+00  0.0000E+00  0.0000E+00  0.0000E+00
    -16.367  0.0000E+00  0.0000E+00  0.0000E+00  0.0000E+00  0.0000E+00  0.0000E+00  0.0000E+00  0.0000E+00  0.0000E+00
    -16.193  0.0000E+00  0.0000E+00  0.0000E+00  0.0000E+00  0.0000E+00  0.0000E+00  0.0000E+00  0.0000E+00  0.0000E+00
    -16.020  0.0000E+00  0.0000E+00  0.0000E+00  0.0000E+00  0.0000E+00  0.0000E+00  0.0000E+00  0.0000E+00  0.0000E+00
    -15.847  0.0000E+00  0.0000E+00  0.0000E+00  0.0000E+00  0.0000E+00  0.0000E+00  0.0000E+00  0.0000E+00  0.0000E+00
    -15.673  0.0000E+00  0.0000E+00  0.0000E+00  0.0000E+00  0.0000E+00  0.0000E+00  0.0000E+00  0.0000E+00  0.0000E+00
    -15.500  0.0000E+00  0.0000E+00  0.0000E+00  0.0000E+00  0.0000E+00  0.0000E+00  0.0000E+00  0.0000E+00  0.0000E+00
    -15.327  0.0000E+00  0.0000E+00  0.0000E+00  0.0000E+00  0.0000E+00  0.0000E+00  0.0000E+00  0.0000E+00  0.0000E+00
    -15.153  0.0000E+00  0.0000E+00  0.0000E+00  0.0000E+00  0.0000E+00  0.0000E+00  0.0000E+00  0.0000E+00  0.0000E+00
    -14.980  0.0000E+00  0.0000E+00  0.0000E+00  0.0000E+00  0.0000E+00  0.0000E+00  0.0000E+00  0.0000E+00  0.0000E+00
    -14.807  0.0000E+00  0.0000E+00  0.0000E+00  0.0000E+00  0.0000E+00  0.0000E+00  0.0000E+00  0.0000E+00  0.0000E+00
    -14.633  0.0000E+00  0.0000E+00  0.0000E+00  0.0000E+00  0.0000E+00  0.0000E+00  0.0000E+00  0.0000E+00  0.0000E+00
    -14.460  0.0000E+00  0.0000E+00  0.0000E+00  0.0000E+00  0.0000E+00  0.0000E+00  0.0000E+00  0.0000E+00  0.0000E+00
    -14.287  0.0000E+00  0.0000E+00  0.0000E+00  0.0000E+00  0.0000E+00  0.0000E+00  0.0000E+00  0.0000E+00  0.0000E+00
    -14.113  0.0000E+00  0.0000E+00  0.0000E+00  0.0000E+00  0.0000E+00  0.0000E+00  0.0000E+00  0.0000E+00  0.0000E+00
    -13.940  0.0000E+00  0.0000E+00  0.0000E+00  0.0000E+00  0.0000E+00  0.0000E+00  0.0000E+00  0.0000E+00  0.0000E+00
    -13.767  0.0000E+00  0.0000E+00  0.0000E+00  0.0000E+00  0.0000E+00  0.0000E+00  0.0000E+00  0.0000E+00  0.0000E+00
    -13.593  0.0000E+00  0.0000E+00  0.0000E+00  0.0000E+00  0.0000E+00  0.0000E+00  0.0000E+00  0.0000E+00  0.0000E+00
    -13.420  0.0000E+00  0.0000E+00  0.0000E+00  0.0000E+00  0.0000E+00  0.0000E+00  0.0000E+00  0.0000E+00  0.0000E+00
    -13.247  0.0000E+00  0.0000E+00  0.0000E+00  0.0000E+00  0.0000E+00  0.0000E+00  0.0000E+00  0.0000E+00  0.0000E+00
    -13.073  0.0000E+00  0.0000E+00  0.0000E+00  0.0000E+00  0.0000E+00  0.0000E+00  0.0000E+00  0.0000E+00  0.0000E+00
    -12.900  0.0000E+00  0.0000E+00  0.0000E+00  0.0000E+00  0.0000E+00  0.0000E+00  0.0000E+00  0.0000E+00  0.0000E+00
    -12.727  0.0000E+00  0.0000E+00  0.0000E+00  0.0000E+00  0.0000E+00  0.0000E+00  0.0000E+00  0.0000E+00  0.0000E+00
    -12.553  0.0000E+00  0.0000E+00  0.0000E+00  0.0000E+00  0.0000E+00  0.0000E+00  0.0000E+00  0.0000E+00  0.0000E+00
    -12.380  0.0000E+00  0.0000E+00  0.0000E+00  0.0000E+00  0.0000E+00  0.0000E+00  0.0000E+00  0.0000E+00  0.0000E+00
    -12.207  0.0000E+00  0.0000E+00  0.0000E+00  0.0000E+00  0.0000E+00  0.0000E+00  0.0000E+00  0.0000E+00  0.0000E+00
    -12.033  0.0000E+00  0.0000E+00  0.0000E+00  0.0000E+00  0.0000E+00  0.0000E+00  0.0000E+00  0.0000E+00  0.0000E+00
    -11.860  0.0000E+00  0.0000E+00  0.0000E+00  0.0000E+00  0.0000E+00  0.0000E+00  0.0000E+00  0.0000E+00  0.0000E+00
    -11.687  0.0000E+00  0.0000E+00  0.0000E+00  0.0000E+00  0.0000E+00  0.0000E+00  0.0000E+00  0.0000E+00  0.0000E+00
    -11.513  0.0000E+00  0.0000E+00  0.0000E+00  0.0000E+00  0.0000E+00  0.0000E+00  0.0000E+00  0.0000E+00  0.0000E+00
    -11.340  0.0000E+00  0.0000E+00  0.0000E+00  0.0000E+00  0.0000E+00  0.0000E+00  0.0000E+00  0.0000E+00  0.0000E+00
    -11.167  0.0000E+00  0.0000E+00  0.0000E+00  0.0000E+00  0.0000E+00  0.0000E+00  0.0000E+00  0.0000E+00  0.0000E+00
    -10.993  0.0000E+00  0.0000E+00  0.0000E+00  0.0000E+00  0.0000E+00  0.0000E+00  0.0000E+00  0.0000E+00  0.0000E+00
    -10.820  0.0000E+00  0.0000E+00  0.0000E+00  0.0000E+00  0.0000E+00  0.0000E+00  0.0000E+00  0.0000E+00  0.0000E+00
    -10.647  0.0000E+00  0.0000E+00  0.0000E+00  0.0000E+00  0.0000E+00  0.0000E+00  0.0000E+00  0.0000E+00  0.0000E+00
    -10.473  0.0000E+00  0.0000E+00  0.0000E+00  0.0000E+00  0.0000E+00  0.0000E+00  0.0000E+00  0.0000E+00  0.0000E+00
    -10.300  0.0000E+00  0.0000E+00  0.0000E+00  0.0000E+00  0.0000E+00  0.0000E+00  0.0000E+00  0.0000E+00  0.0000E+00
    -10.127  0.0000E+00  0.0000E+00  0.0000E+00  0.0000E+00  0.0000E+00  0.0000E+00  0.0000E+00  0.0000E+00  0.0000E+00
     -9.953  0.3457E-07  0.2175E-09  0.1379E-07  0.6514E-09  0.8102E-10  0.1865E-09  0.1657E-08  0.5581E-09  0.2698E-10
     -9.780  0.1740E-07  0.3510E-09  0.7562E-08  0.6127E-09  0.8260E-10  0.3171E-09  0.9727E-09  0.5342E-09  0.2905E-10
     -9.607  0.1592E-07  0.3962E-09  0.6908E-08  0.6047E-09  0.8966E-10  0.3640E-09  0.9380E-09  0.5387E-09  0.3190E-10
     -9.433  0.1420E-07  0.4324E-09  0.6154E-08  0.5994E-09  0.9820E-10  0.4028E-09  0.8978E-09  0.5473E-09  0.3514E-10
     -9.260  0.8184E-08  0.3963E-09  0.3594E-08  0.4377E-09  0.7796E-10  0.4026E-09  0.5878E-09  0.4149E-09  0.3008E-10
     -9.087  0.4562E-08  0.3516E-09  0.2087E-08  0.3355E-09  0.6111E-10  0.3896E-09  0.3887E-09  0.3271E-09  0.2580E-10
     -8.913  0.3894E-08  0.3179E-09  0.1845E-08  0.3269E-09  0.5784E-10  0.3709E-09  0.3587E-09  0.3185E-09  0.2513E-10
     -8.740  0.3217E-08  0.2839E-09  0.1595E-08  0.3134E-09  0.5378E-10  0.3512E-09  0.3276E-09  0.3052E-09  0.2416E-10
     -8.567  0.2531E-08  0.2497E-09  0.1337E-08  0.2952E-09  0.4894E-10  0.3303E-09  0.2954E-09  0.2872E-09  0.2291E-10
     -8.393  0.9498E-09  0.1566E-09  0.6655E-09  0.2050E-09  0.4745E-10  0.2578E-09  0.1778E-09  0.2366E-09  0.2119E-10
     -8.220  0.4414E-09  0.1315E-09  0.4157E-09  0.1423E-09  0.5454E-10  0.2391E-09  0.1286E-09  0.1961E-09  0.2196E-10
     -8.047  0.3718E-09  0.1138E-09  0.3434E-09  0.1381E-09  0.7105E-10  0.2197E-09  0.1422E-09  0.2309E-09  0.2545E-10
     -7.874  0.2971E-09  0.9828E-10  0.2726E-09  0.1381E-09  0.8806E-10  0.2052E-09  0.1483E-09  0.2754E-09  0.2911E-10
     -7.700  0.9140E-10  0.5078E-10  0.9046E-10  0.1258E-09  0.1286E-09  0.2136E-09  0.1646E-09  0.4353E-09  0.6867E-10
     -7.527  0.2536E-10  0.8931E-10  0.1659E-09  0.1975E-09  0.2872E-09  0.3240E-09  0.2097E-09  0.6621E-09  0.4523E-09
     -7.354  0.1387E-10  0.3350E-10  0.8754E-10  0.7953E-10  0.1492E-09  0.2638E-09  0.1258E-09  0.4372E-09  0.2470E-09
     -7.180  0.8857E-11  0.2995E-10  0.9041E-10  0.8590E-10  0.1223E-09  0.2904E-09  0.1233E-09  0.4771E-09  0.2342E-09
     -7.007  0.1976E-11  0.1323E-10  0.4851E-10  0.5859E-10  0.4803E-10  0.6187E-09  0.6935E-10  0.7377E-09  0.9318E-10
     -6.834  0.1428E-09  0.9465E-10  0.1431E-09  0.2889E-09  0.5119E-09  0.6194E-09  0.2323E-08  0.8478E-09  0.2928E-09
     -6.660  0.2284E-02  0.8277E-05  0.3210E-03  0.2483E-04  0.6355E-06  0.2672E-05  0.6218E-06  0.8013E-05  0.2123E-06
     -6.487  0.6003E-02  0.3041E-04  0.8533E-03  0.9123E-04  0.2333E-05  0.9815E-05  0.2263E-05  0.2944E-04  0.7783E-06
     -6.314  0.3948E-02  0.4400E-04  0.5863E-03  0.1216E-03  0.3409E-05  0.1483E-04  0.3462E-05  0.3960E-04  0.1147E-05
     -6.140  0.2345E-01  0.2043E-03  0.2935E-02  0.5310E-03  0.1670E-04  0.6503E-04  0.1539E-04  0.1565E-03  0.5654E-05
     -5.967  0.1096E-01  0.3745E-03  0.1459E-02  0.3846E-03  0.3804E-04  0.1416E-03  0.1030E-04  0.1303E-03  0.1299E-04
     -5.794  0.1147E-01  0.4684E-03  0.1565E-02  0.4822E-03  0.5885E-04  0.1833E-03  0.1717E-04  0.1820E-03  0.2000E-04
     -5.620  0.1196E-01  0.5559E-03  0.1670E-02  0.5908E-03  0.8099E-04  0.2229E-03  0.2445E-04  0.2395E-03  0.2745E-04
     -5.447  0.1468E-01  0.6492E-03  0.1918E-02  0.7473E-03  0.1058E-03  0.2625E-03  0.6391E-04  0.3089E-03  0.3578E-04
     -5.274  0.4628E-01  0.9224E-03  0.3965E-02  0.1451E-02  0.1454E-03  0.3262E-03  0.4983E-03  0.4467E-03  0.4791E-04
     -5.100  0.4028E-01  0.1650E-02  0.3737E-02  0.1734E-02  0.2418E-03  0.5286E-03  0.3020E-03  0.5311E-03  0.7856E-04
     -4.927  0.4234E-01  0.1930E-02  0.4014E-02  0.2108E-02  0.3404E-03  0.6174E-03  0.2847E-03  0.6909E-03  0.1100E-03
     -4.754  0.4393E-01  0.2176E-02  0.4240E-02  0.2462E-02  0.4378E-03  0.6942E-03  0.2604E-03  0.8395E-03  0.1411E-03
     -4.580  0.4471E-01  0.2387E-02  0.4367E-02  0.2769E-02  0.5312E-03  0.7591E-03  0.2283E-03  0.9643E-03  0.1707E-03
     -4.407  0.4430E-01  0.3504E-02  0.4485E-02  0.3106E-02  0.9908E-03  0.1403E-02  0.2255E-03  0.1313E-02  0.1983E-03
     -4.234  0.4414E-01  0.4261E-02  0.4950E-02  0.3791E-02  0.1492E-02  0.1961E-02  0.2365E-03  0.1910E-02  0.2452E-03
     -4.060  0.5941E-01  0.4180E-02  0.4798E-02  0.4362E-02  0.1905E-02  0.2311E-02  0.3246E-02  0.2527E-02  0.2779E-03
     -3.887  0.8342E-01  0.3080E-02  0.3613E-02  0.4845E-02  0.1867E-02  0.1921E-02  0.8185E-02  0.2612E-02  0.3042E-03
     -3.714  0.1275E+00  0.6177E-02  0.5142E-02  0.8506E-02  0.2952E-02  0.2212E-02  0.9981E-02  0.3328E-02  0.7134E-03
     -3.540  0.6453E-01  0.6847E-02  0.5697E-02  0.7356E-02  0.4953E-02  0.3619E-02  0.2145E-02  0.4972E-02  0.8042E-03
     -3.367  0.5594E-01  0.7465E-02  0.5845E-02  0.7443E-02  0.6371E-02  0.4247E-02  0.1031E-02  0.5614E-02  0.8646E-03
     -3.194  0.3904E-01  0.6118E-02  0.4958E-02  0.6222E-02  0.6274E-02  0.4612E-02  0.5062E-03  0.5306E-02  0.9209E-03
     -3.020  0.2295E+00  0.1876E-01  0.9322E-02  0.2262E-01  0.1636E-01  0.8723E-02  0.3791E-01  0.9364E-02  0.3906E-02
     -2.847  0.4254E-01  0.8842E-02  0.6526E-02  0.8470E-02  0.1211E-01  0.1132E-01  0.1757E-02  0.1304E-01  0.2181E-02
     -2.674  0.7717E-01  0.8887E-02  0.9289E-02  0.9550E-02  0.1460E-01  0.1379E-01  0.4755E-01  0.1728E-01  0.3035E-02
     -2.500  0.7180E-01  0.1603E-01  0.7433E-02  0.1228E-01  0.2919E-01  0.1735E-01  0.3595E-02  0.2217E-01  0.4194E-02
     -2.327  0.1804E+00  0.2860E-01  0.1540E-01  0.2500E-01  0.7504E-01  0.2982E-01  0.6294E-01  0.3668E-01  0.1621E-01
     -2.154  0.1430E+00  0.3146E-01  0.1555E-01  0.2984E-01  0.9927E-01  0.5341E-01  0.4247E-01  0.9595E-01  0.2364E-01
     -1.980  0.1097E+00  0.2421E-01  0.9976E-02  0.1918E-01  0.7837E-01  0.3862E-01  0.5335E-01  0.5201E-01  0.2262E-01
     -1.807  0.1600E+00  0.3157E-01  0.1229E-01  0.2348E-01  0.2672E+00  0.4731E-01  0.6403E-01  0.6411E-01  0.8237E-01
     -1.634  0.1567E+00  0.3790E-01  0.1389E-01  0.2095E-01  0.3256E+00  0.5779E-01  0.1130E+00  0.6054E-01  0.9627E-01
     -1.460  0.9113E-01  0.3909E-01  0.1192E-01  0.1506E-01  0.4299E+00  0.7657E-01  0.9629E-01  0.6411E-01  0.1471E+00
     -1.287  0.3658E-01  0.1087E-01  0.7283E-02  0.8431E-02  0.2755E+00  0.9724E-02  0.1035E+00  0.2980E-01  0.1343E+00
     -1.114  0.3001E-01  0.1842E-01  0.9457E-02  0.1868E-01  0.4618E+00  0.6327E-01  0.1695E+00  0.1708E+00  0.2709E+00
     -0.940  0.1121E-01  0.6069E-02  0.5893E-02  0.5627E-02  0.1851E+00  0.2948E-01  0.1366E+00  0.7069E-01  0.9690E-01
     -0.767  0.1786E-01  0.1368E-01  0.9418E-02  0.3138E-01  0.2701E+00  0.1957E+00  0.1980E+00  0.3927E+00  0.3213E+00
     -0.594  0.2322E-01  0.2212E-01  0.9214E-02  0.1955E-01  0.3035E+00  0.1883E+00  0.2283E+00  0.2525E+00  0.2357E+00
     -0.420  0.2642E-01  0.8376E-02  0.1545E-01  0.9093E-02  0.2671E+00  0.1894E+00  0.2866E+00  0.2163E+00  0.2249E+00
     -0.247  0.2383E-01  0.1156E-01  0.1488E-01  0.1726E-01  0.3411E+00  0.2412E+00  0.3360E+00  0.2730E+00  0.2962E+00
     -0.074  0.9304E-01  0.3801E-01  0.4310E-01  0.6313E-01  0.7048E+00  0.7273E+00  0.6765E+00  0.4484E+00  0.9490E+00
      0.100  0.4287E-01  0.3689E-01  0.2280E-01  0.2840E-01  0.5249E+00  0.6544E+00  0.8241E+00  0.6640E+00  0.3465E+00
      0.273  0.2856E-01  0.3374E-01  0.1337E-01  0.6817E-01  0.5686E+00  0.7837E+00  0.4223E+00  0.9724E+00  0.8926E+00
      0.446  0.3441E-01  0.2534E-01  0.9549E-02  0.6402E-01  0.3964E+00  0.3112E+00  0.2555E+00  0.5338E+00  0.6720E+00
      0.620  0.3882E-01  0.2946E-01  0.1171E-01  0.7777E-01  0.1715E+00  0.5385E+00  0.4052E+00  0.4184E+00  0.4380E+00
      0.793  0.3241E-01  0.2169E-01  0.3363E-01  0.5525E-01  0.2825E+00  0.5628E+00  0.4427E+00  0.7021E+00  0.4917E+00
      0.966  0.2374E-01  0.1731E-01  0.6942E-02  0.4322E-01  0.3119E+00  0.6605E+00  0.4523E+00  0.5684E+00  0.5086E+00
      1.140  0.2474E-01  0.1687E-01  0.6833E-02  0.3771E-01  0.3074E+00  0.1157E+01  0.5826E+00  0.9330E+00  0.5016E+00
      1.313  0.3435E-01  0.1339E-01  0.1714E-01  0.2142E-01  0.3295E+00  0.9782E+00  0.8226E+00  0.9817E+00  0.4145E+00
      1.486  0.2097E-01  0.1827E-01  0.6732E-02  0.2293E-01  0.5113E+00  0.9507E+00  0.6611E+00  0.6027E+00  0.5612E+00
      1.660  0.2449E-01  0.1310E-01  0.1430E-01  0.1553E-01  0.8809E+00  0.9346E+00  0.2020E+01  0.8291E+00  0.1374E+01