    7    7    1    1
  0.1413867E+02  0.2496087E-09  0.2496087E-09  0.1834242E-08  0.5000000E-15
  1.000000000000000E-004
  CAR 
 CO adsorption on Ni(111)                
     60     12     48
 
  0.0000000E+00  0.0000000E+00  0.0000000E+00  0.1234568E-01
    1      -23.016244   1.000000
    2      -10.122380   1.000000
    3       -6.748013   1.000000
    4       -6.303037   1.000000
    5       -5.458771   1.000000
    6       -4.156943   1.000000
    7       -3.189926   1.000000
    8       -2.734525   1.000000
    9       -2.067513   1.000000
   10       -2.065673   1.000000
   11       -0.517348   1.000000
   12       -0.245709   1.000000
   13       -0.152006   1.000000
   14       -0.152005   1.000000
   15       -0.115641   1.000000
   16       -0.100035   1.000000
   17       -0.100014   1.000000
   18       -0.014670   1.000000
   19       -0.014660   1.000000
   20        0.043476   1.000000
   21        0.043483   1.000000
   22        0.221164   1.000000
   23        0.221170   1.000000
   24        0.342368   1.000000
   25        0.487406   1.000000
   26        0.487465   1.000000
   27        0.992845   1.000000
   28        0.992848   1.000000
   29        1.110441   1.000000
   30        1.110444   1.000000
   31        1.439634   1.000000
   32        1.439641   1.000000
   33        1.692965   1.000000
   34        1.692973   0.079034
   35        1.848324   0.000000
   36        6.558944   0.000000
   37        7.289212   0.000000
   38        8.038467   0.000000
   39        8.040299   0.000000
   40        8.903612   0.000000
   41       10.919848   0.000000
   42       12.612617   0.000000
   43       15.064290   0.000000
   44       16.005921   0.000000
   45       18.972863   0.000000
   46       19.778506   0.000000
   47       21.601641   0.000000
   48       24.255584   0.000000
 
  0.1111111E+00  0.0000000E+00  0.0000000E+00  0.7407407E-01
    1      -22.874342   1.000000
    2       -9.871420   1.000000
    3       -6.423866   1.000000
    4       -6.065700   1.000000
    5       -5.132378   1.000000
    6       -3.841359   1.000000
    7       -2.902998   1.000000
    8       -2.647412   1.000000
    9       -2.421952   1.000000
   10       -2.202816   1.000000
   11       -0.679055   1.000000
   12       -0.451430   1.000000
   13       -0.377926   1.000000
   14       -0.274467   1.000000
   15       -0.183275   1.000000
   16       -0.124040   1.000000
   17       -0.019991   1.000000
   18        0.023984   1.000000
   19        0.035622   1.000000
   20        0.108928   1.000000
   21        0.148347   1.000000
   22        0.179316   1.000000
   23        0.184231   1.000000
   24        0.368493   1.000000
   25        0.464375   1.000000
   26        0.496524   1.000000
   27        0.852066   1.000000
   28        0.914692   1.000000
   29        0.969174   1.000000
   30        1.133997   1.000000
   31        1.309568   1.000000
   32        1.444997   1.000000
   33        1.699127   0.881866
   34        2.011570  -0.008831
   35        3.113831   0.000000
   36        6.811134   0.000000
   37        7.146093   0.000000
   38        7.841234   0.000000
   39        7.863561   0.000000
   40        9.219869   0.000000
   41       11.300237   0.000000
   42       12.985485   0.000000
   43       15.563837   0.000000
   44       16.295548   0.000000
   45       19.318150   0.000000
   46       20.109682   0.000000
   47       20.777007   0.000000
   48       21.128077   0.000000
 
  0.2222222E+00 -0.1387779E-16  0.0000000E+00  0.7407407E-01
    1      -22.496252   1.000000
    2       -9.173319   1.000000
    3       -6.089843   1.000000
    4       -5.075258   1.000000
    5       -4.293229   1.000000
    6       -3.718267   1.000000
    7       -2.942802   1.000000
    8       -2.542233   1.000000
    9       -2.214202   1.000000
   10       -1.782482   1.000000
   11       -1.139334   1.000000
   12       -0.909368   1.000000
   13       -0.680541   1.000000
   14       -0.568894   1.000000
   15       -0.511466   1.000000
   16       -0.301369   1.000000
   17       -0.100679   1.000000
   18       -0.004475   1.000000
   19        0.015144   1.000000
   20        0.184770   1.000000
   21        0.310600   1.000000
   22        0.360513   1.000000
   23        0.461104   1.000000
   24        0.575230   1.000000
   25        0.686876   1.000000
   26        0.694282   1.000000
   27        0.809090   1.000000
   28        0.978255   1.000000
   29        1.035125   1.000000
   30        1.186121   1.000000
   31        1.449581   1.000000
   32        1.711765   0.984468
   33        1.751433  -0.009826
   34        3.002099   0.000000
   35        4.751272   0.000000
   36        5.447245   0.000000
   37        7.377963   0.000000
   38        7.755812   0.000000
   39        8.754667   0.000000
   40       10.213028   0.000000
   41       12.256156   0.000000
   42       13.983834   0.000000
   43       15.752790   0.000000
   44       16.446111   0.000000
   45       16.513963   0.000000
   46       17.145454   0.000000
   47       17.835895   0.000000
   48       18.873236   0.000000
 
  0.3333333E+00  0.0000000E+00  0.0000000E+00  0.7407407E-01
    1      -22.020720   1.000000
    2       -8.232368   1.000000
    3       -6.447537   1.000000
    4       -4.565513   1.000000
    5       -3.482471   1.000000
    6       -2.920560   1.000000
    7       -2.898900   1.000000
    8       -2.333409   1.000000
    9       -1.900552   1.000000
   10       -1.644189   1.000000
   11       -1.505276   1.000000
   12       -1.281813   1.000000
   13       -0.966269   1.000000
   14       -0.633688   1.000000
   15       -0.398988   1.000000
   16       -0.284840   1.000000
   17       -0.109918   1.000000
   18       -0.022054   1.000000
   19        0.113375   1.000000
   20        0.236159   1.000000
   21        0.461502   1.000000
   22        0.682799   1.000000
   23        0.723070   1.000000
   24        1.044849   1.000000
   25        1.176338   1.000000
   26        1.260938   1.000000
   27        1.304338   1.000000
   28        1.360445   1.007842
   29        1.401547   1.112467
   30        1.449950   1.077644
   31        1.528151   0.762456
   32        1.728898   0.363622
   33        2.309745   0.000000
   34        3.703367   0.000000
   35        4.269786   0.000000
   36        6.465211   0.000000
   37        6.908941   0.000000
   38        8.811728   0.000000
   39       10.218965   0.000000
   40       11.002669   0.000000
   41       11.750570   0.000000
   42       12.484217   0.000000
   43       13.388284   0.000000
   44       13.899224   0.000000
   45       14.982495   0.000000
   46       15.271170   0.000000
   47       16.457326   0.000000
   48       16.951690   0.000000
 
  0.4444444E+00 -0.2775558E-16  0.0000000E+00  0.7407407E-01
    1      -21.679311   1.000000
    2       -7.643425   1.000000
    3       -6.855142   1.000000
    4       -4.507710   1.000000
    5       -3.126586   1.000000
    6       -2.567455   1.000000
    7       -2.419127   1.000000
    8       -2.225246   1.000000
    9       -1.988298   1.000000
   10       -1.809073   1.000000
   11       -1.700419   1.000000
   12       -1.600027   1.000000
   13       -1.254372   1.000000
   14       -0.653591   1.000000
   15       -0.211469   1.000000
   16       -0.207595   1.000000
   17       -0.062853   1.000000
   18        0.149421   1.000000
   19        0.234382   1.000000
   20        0.472129   1.000000
   21        0.672670   1.000000
   22        1.190422   1.000000
   23        1.248413   1.000000
   24        1.502721   1.000000
   25        1.516305   1.000000
   26        1.623824   1.000000
   27        1.680973   1.000000
   28        1.730496   0.788733
   29        1.790006   0.135588
   30        1.870283   0.034811
   31        1.951203   0.006164
   32        2.457000   0.000000
   33        3.077795   0.000000
   34        3.788575   0.000000
   35        5.134386   0.000000
   36        6.086991   0.000000
   37        6.621280   0.000000
   38        8.232857   0.000000
   39        8.890335   0.000000
   40        9.876724   0.000000
   41       11.524418   0.000000
   42       12.181543   0.000000
   43       12.896694   0.000000
   44       13.630831   0.000000
   45       14.118658   0.000000
   46       14.919008   0.000000
   47       15.127566   0.000000
   48       16.036926   0.000000
 
  0.1111111E+00  0.1111111E+00  0.0000000E+00  0.7407407E-01
    1      -22.614403   1.000000
    2       -9.395869   1.000000
    3       -6.121872   1.000000
    4       -5.416841   1.000000
    5       -4.506072   1.000000
    6       -3.515063   1.000000
    7       -3.118509   1.000000
    8       -2.535526   1.000000
    9       -2.380517   1.000000
   10       -1.935013   1.000000
   11       -0.950004   1.000000
   12       -0.791847   1.000000
   13       -0.648028   1.000000
   14       -0.500756   1.000000
   15       -0.422689   1.000000
   16       -0.390639   1.000000
   17       -0.122318   1.000000
   18       -0.043980   1.000000
   19        0.032150   1.000000
   20        0.160316   1.000000
   21        0.266368   1.000000
   22        0.359128   1.000000
   23        0.476047   1.000000
   24        0.501189   1.000000
   25        0.616462   1.000000
   26        0.687557   1.000000
   27        0.709192   1.000000
   28        0.819392   1.000000
   29        1.089841   1.000000
   30        1.252307   1.000000
   31        1.279184   1.000000
   32        1.611142   1.000000
   33        1.751082   0.015437
   34        2.736200   0.000000
   35        4.301232   0.000000
   36        6.027651   0.000000
   37        7.342348   0.000000
   38        7.513359   0.000000
   39        8.448962   0.000000
   40        9.883328   0.000000
   41       11.973301   0.000000
   42       13.705150   0.000000
   43       16.443375   0.000000
   44       16.812235   0.000000
   45       18.414763   0.000000
   46       18.458622   0.000000
   47       18.784172   0.000000
   48       19.372254   0.000000
 
  0.2222222E+00  0.1111111E+00  0.0000000E+00  0.1481481E+00
    1      -22.183752   1.000000
    2       -8.561106   1.000000
    3       -6.166538   1.000000
    4       -4.419314   1.000000
    5       -3.952801   1.000000
    6       -3.223307   1.000000
    7       -3.073337   1.000000
    8       -2.376728   1.000000
    9       -1.799449   1.000000
   10       -1.480346   1.000000
   11       -1.286291   1.000000
   12       -1.044759   1.000000
   13       -0.847739   1.000000
   14       -0.792463   1.000000
   15       -0.679936   1.000000
   16       -0.483261   1.000000
   17       -0.215419   1.000000
   18       -0.135896   1.000000
   19       -0.107633   1.000000
   20        0.021469   1.000000
   21        0.249076   1.000000
   22        0.461312   1.000000
   23        0.689438   1.000000
   24        0.755988   1.000000
   25        0.875572   1.000000
   26        1.069827   1.000000
   27        1.178067   1.000000
   28        1.277399   1.000000
   29        1.407424   1.000000
   30        1.470911   1.065234
   31        1.561262   0.775139
   32        1.618670   0.701646
   33        2.258110   0.000000
   34        3.814044   0.000000
   35        4.539570   0.000000
   36        5.935497   0.000000
   37        6.592772   0.000000
   38        8.534230   0.000000
   39        9.784124   0.000000
   40       11.216293   0.000000
   41       12.908940   0.000000
   42       13.729192   0.000000
   43       14.441727   0.000000
   44       15.069611   0.000000
   45       15.710876   0.000000
   46       16.454593   0.000000
   47       16.935564   0.000000
   48       17.489334   0.000000
 
  0.3333333E+00  0.1111111E+00  0.0000000E+00  0.1481481E+00
    1      -21.766707   1.000000
    2       -7.700224   1.000000
    3       -6.643668   1.000000
    4       -4.506300   1.000000
    5       -3.490333   1.000000
    6       -2.650899   1.000000
    7       -2.396327   1.000000
    8       -2.108665   1.000000
    9       -1.770591   1.000000
   10       -1.661710   1.000000
   11       -1.491380   1.000000
   12       -1.302561   1.000000
   13       -1.087081   1.000000
   14       -0.716888   1.000000
   15       -0.433966   1.000000
   16       -0.352242   1.000000
   17       -0.189703   1.000000
   18       -0.130552   1.000000
   19        0.051806   1.000000
   20        0.287194   1.000000
   21        0.420133   1.000000
   22        0.670089   1.000000
   23        0.796478   1.000000
   24        1.133044   1.000000
   25        1.252279   1.000000
   26        1.365322   1.000000
   27        1.484882   1.000000
   28        1.598736   1.007706
   29        1.712662   0.624423
   30        1.774084   0.258346
   31        2.227868  -0.058382
   32        2.502234  -0.069962
   33        2.996179   0.000000
   34        3.730925   0.000000
   35        5.295217   0.000000
   36        6.043872   0.000000
   37        7.314381   0.000000
   38        8.974110   0.000000
   39        9.615418   0.000000
   40       10.734667   0.000000
   41       11.866972   0.000000
   42       12.309328   0.000000
   43       13.151357   0.000000
   44       13.612810   0.000000
   45       14.828739   0.000000
   46       15.085754   0.000000
   47       15.557648   0.000000
   48       15.743086   0.000000
 
  0.4444444E+00  0.1111111E+00  0.0000000E+00  0.7407407E-01
    1      -21.590250   1.000000
    2       -7.443621   1.000000
    3       -6.757061   1.000000
    4       -4.496028   1.000000
    5       -3.615909   1.000000
    6       -2.354924   1.000000
    7       -2.195028   1.000000
    8       -2.034755   1.000000
    9       -1.843824   1.000000
   10       -1.637999   1.000000
   11       -1.592425   1.000000
   12       -1.541102   1.000000
   13       -1.216413   1.000000
   14       -0.707854   1.000000
   15       -0.433152   1.000000
   16       -0.277322   1.000000
   17       -0.139684   1.000000
   18        0.059225   1.000000
   19        0.213269   1.000000
   20        0.241715   1.000000
   21        0.729917   1.000000
   22        0.763697   1.000000
   23        1.100542   1.000000
   24        1.266161   1.000000
   25        1.518199   1.000000
   26        1.559761   1.000000
   27        1.651963   1.000000
   28        1.667063   1.063499
   29        1.779814  -0.029701
   30        1.980175   0.000000
   31        2.080082   0.000000
   32        3.591570   0.000000
   33        4.332753   0.000000
   34        4.882294   0.000000
   35        5.242403   0.000000
   36        5.773129   0.000000
   37        5.933794   0.000000
   38        8.152259   0.000000
   39        8.915565   0.000000
   40        9.929715   0.000000
   41       11.751632   0.000000
   42       12.019450   0.000000
   43       13.544067   0.000000
   44       13.954047   0.000000
   45       14.538951   0.000000
   46       14.730090   0.000000
   47       15.023688   0.000000
   48       15.836177   0.000000
 
  0.2222222E+00  0.2222222E+00  0.0000000E+00  0.7407407E-01
    1      -21.802368   1.000000
    2       -7.746447   1.000000
    3       -6.368031   1.000000
    4       -4.323948   1.000000
    5       -4.066000   1.000000
    6       -2.664451   1.000000
    7       -2.294972   1.000000
    8       -1.884225   1.000000
    9       -1.608189   1.000000
   10       -1.318221   1.000000
   11       -1.216384   1.000000
   12       -1.090249   1.000000
   13       -0.993642   1.000000
   14       -0.887105   1.000000
   15       -0.715297   1.000000
   16       -0.535873   1.000000
   17       -0.438120   1.000000
   18       -0.316078   1.000000
   19       -0.271956   1.000000
   20       -0.099738   1.000000
   21        0.293106   1.000000
   22        0.474920   1.000000
   23        0.642910   1.000000
   24        0.909124   1.000000
   25        0.977464   1.000000
   26        1.159205   1.000000
   27        1.492302   1.000000
   28        1.631083   1.000000
   29        1.706747   0.818787
   30        1.782473   0.245206
   31        2.420321  -0.072478
   32        2.611277  -0.076094
   33        3.333031   0.000000
   34        3.960712   0.000000
   35        5.267542   0.000000
   36        5.396623   0.000000
   37        7.585192   0.000000
   38        9.845172   0.000000
   39       11.171509   0.000000
   40       11.680827   0.000000
   41       12.010883   0.000000
   42       12.568057   0.000000
   43       13.041054   0.000000
   44       13.342821   0.000000
   45       14.070836   0.000000
   46       14.414250   0.000000
   47       14.889647   0.000000
   48       15.719722   0.000000
 
  0.3333333E+00  0.2222222E+00  0.0000000E+00  0.1481481E+00
    1      -21.537235   1.000000
    2       -7.058081   1.000000
    3       -6.501805   1.000000
    4       -4.899581   1.000000
    5       -4.164809   1.000000
    6       -1.990457   1.000000
    7       -1.805169   1.000000
    8       -1.699029   1.000000
    9       -1.476126   1.000000
   10       -1.432660   1.000000
   11       -1.241460   1.000000
   12       -1.149132   1.000000
   13       -0.976293   1.000000
   14       -0.849304   1.000000
   15       -0.796893   1.000000
   16       -0.582996   1.000000
   17       -0.548928   1.000000
   18       -0.304648   1.000000
   19       -0.066543   1.000000
   20        0.194242   1.000000
   21        0.328183   1.000000
   22        0.456703   1.000000
   23        0.721813   1.000000
   24        0.986197   1.000000
   25        1.167286   1.000000
   26        1.323400   1.000000
   27        1.560933   1.000000
   28        1.653799   1.000000
   29        1.764959   0.022349
   30        1.946433   0.000000
   31        2.642739   0.000000
   32        4.215644   0.000000
   33        4.487481   0.000000
   34        4.787839   0.000000
   35        5.761574   0.000000
   36        7.019145   0.000000
   37        7.650993   0.000000
   38        8.751059   0.000000
   39        9.689041   0.000000
   40       10.467091   0.000000
   41       10.872336   0.000000
   42       11.693960   0.000000
   43       12.157729   0.000000
   44       12.956995   0.000000
   45       13.722135   0.000000
   46       14.088928   0.000000
   47       14.656725   0.000000
   48       15.307165   0.000000
 
  0.3333333E+00  0.3333333E+00  0.0000000E+00  0.2469136E-01
    1      -21.444927   1.000000
    2       -6.403684   1.000000
    3       -6.098342   1.000000
    4       -6.097046   1.000000
    5       -4.145150   1.000000
    6       -1.588360   1.000000
    7       -1.513627   1.000000
    8       -1.350091   1.000000
    9       -1.312353   1.000000
   10       -1.275646   1.000000
   11       -1.258356   1.000000
   12       -1.171509   1.000000
   13       -1.032335   1.000000
   14       -0.917466   1.000000
   15       -0.888720   1.000000
   16       -0.649443   1.000000
   17       -0.535100   1.000000
   18       -0.438693   1.000000
   19       -0.326521   1.000000
   20        0.065510   1.000000
   21        0.185776   1.000000
   22        0.595277   1.000000
   23        0.821869   1.000000
   24        0.856202   1.000000
   25        1.014616   1.000000
   26        1.447637   1.000000
   27        1.559655   1.000000
   28        1.569468   1.000000
   29        1.601330   1.196495
   30        1.977726   0.000000
   31        3.200291   0.000000
   32        3.232438   0.000000
   33        6.779002   0.000000
   34        6.860356   0.000000
   35        7.090680   0.000000
   36        7.335845   0.000000
   37        7.836219   0.000000
   38        8.280762   0.000000
   39        8.920100   0.000000
   40        9.045048   0.000000
   41        9.628066   0.000000
   42       10.383943   0.000000
   43       11.333028   0.000000
   44       12.853440   0.000000
   45       13.628378   0.000000
   46       13.986864   0.000000
   47       14.294075   0.000000
   48       15.617740   0.000000
