Automatically generated mesh
      12
Reciprocal lattice
    0.00000000000000    0.00000000000000    0.00000000000000             1
    0.11111111111111    0.00000000000000    0.00000000000000             6
    0.22222222222222   -0.00000000000000    0.00000000000000             6
    0.33333333333333    0.00000000000000    0.00000000000000             6
    0.44444444444444   -0.00000000000000    0.00000000000000             6
    0.11111111111111    0.11111111111111    0.00000000000000             6
    0.22222222222222    0.11111111111111    0.00000000000000            12
    0.33333333333333    0.11111111111111    0.00000000000000            12
    0.44444444444444    0.11111111111111    0.00000000000000             6
    0.22222222222222    0.22222222222222    0.00000000000000             6
    0.33333333333333    0.22222222222222    0.00000000000000            12
    0.33333333333333    0.33333333333333    0.00000000000000             2
Tetrahedra
        43    0.00205761316872
        12         2         2         2         6
        12         1         2         2         2
         6         1         1         2         2
         6         2         2         6         6
        12         3         6         6         7
        12         2         3         6         6
        12         2         2         3         6
        12         3         6         7         7
        12         3         3         6         7
        12         2         3         3         6
        12         4         7         7         8
        12         3         4         7         7
        12         3         3         4         7
        12         4         7         8         8
        12         4         4         7         8
        12         3         4         4         7
        12         5         8         8         9
        12         4         5         8         8
        12         4         4         5         8
        12         5         8         9         9
        12         5         5         8         9
        12         4         5         5         8
         6         5         5         9         9
        12         5         5         5         9
        12         7         7         7        10
        12         6         7         7         7
         6         6         6         7         7
         6         7         7        10        10
        12         8        10        10        11
        12         7         8        10        10
        12         7         7         8        10
        12         8        10        11        11
        12         8         8        10        11
        12         7         8         8        10
        12         9        11        11        11
        12         8         9        11        11
        12         8         8         9        11
         6         9         9        11        11
        12         8         9         9        11
        24        11        11        11        12
        12        10        11        11        11
         6        10        10        11        11
        12        11        11        12        12
