       N       E                     dE             d eps       ncg     rms          rms(c)
DAV:   1     0.375201167075E+03    0.37520E+03   -0.24240E+04  1152   0.134E+03
DAV:   2    -0.177639888801E+02   -0.39297E+03   -0.36199E+03  1168   0.287E+02
DAV:   3    -0.474538209268E+02   -0.29690E+02   -0.28682E+02  1408   0.949E+01
DAV:   4    -0.479136852601E+02   -0.45986E+00   -0.45889E+00  1296   0.122E+01
DAV:   5    -0.479211170028E+02   -0.74317E-02   -0.74341E-02  1456   0.136E+00    0.218E+01
RMM:   6    -0.655263323923E+02   -0.17605E+02   -0.52943E+01  1388   0.559E+01    0.329E+01
RMM:   7    -0.131558109519E+03   -0.66032E+02   -0.32528E+01  1450   0.231E+01    0.704E+01
RMM:   8    -0.568267999915E+02    0.74731E+02   -0.43223E+00  1361   0.133E+01    0.428E+01
RMM:   9    -0.459744839252E+02    0.10852E+02   -0.25551E+00  1354   0.105E+01    0.229E+01
RMM:  10    -0.450748824508E+02    0.89960E+00   -0.23562E+00  1338   0.101E+01    0.208E+01
RMM:  11    -0.446870632900E+02    0.38782E+00   -0.76448E-01  1358   0.559E+00    0.192E+01
RMM:  12    -0.440026544374E+02    0.68441E+00   -0.23058E-01  1335   0.303E+00    0.139E+01
RMM:  13    -0.434937374238E+02    0.50892E+00   -0.41446E-02  1316   0.113E+00    0.136E+01
RMM:  14    -0.427718043660E+02    0.72193E+00   -0.10309E-01  1305   0.210E+00    0.906E+00
RMM:  15    -0.419028810226E+02    0.86892E+00   -0.12534E-01  1340   0.221E+00    0.690E+00
RMM:  16    -0.416526349220E+02    0.25025E+00   -0.18145E-02  1315   0.825E-01    0.480E+00
RMM:  17    -0.418481029666E+02   -0.19547E+00   -0.12008E-02  1324   0.684E-01    0.901E+00
RMM:  18    -0.418300951768E+02    0.18008E-01   -0.13744E-02  1306   0.762E-01    0.671E+00
RMM:  19    -0.416685048663E+02    0.16159E+00   -0.63787E-03  1278   0.347E-01    0.493E+00
RMM:  20    -0.413675506096E+02    0.30095E+00   -0.11187E-01  1315   0.160E+00    0.355E+00
RMM:  21    -0.413502023065E+02    0.17348E-01   -0.83061E-03  1363   0.477E-01    0.321E+00
RMM:  22    -0.413140550767E+02    0.36147E-01   -0.25616E-02  1326   0.749E-01    0.258E+00
RMM:  23    -0.413203552766E+02   -0.63002E-02   -0.80242E-03  1325   0.478E-01    0.279E+00
RMM:  24    -0.414212354009E+02   -0.10088E+00   -0.15735E-02  1322   0.583E-01    0.648E+00
RMM:  25    -0.415853407959E+02   -0.16411E+00   -0.27867E-03  1332   0.250E-01    0.925E+00
RMM:  26    -0.417248077681E+02   -0.13947E+00   -0.68200E-04  1217   0.122E-01    0.104E+01
RMM:  27    -0.417878524125E+02   -0.63045E-01   -0.10865E-03  1285   0.186E-01    0.111E+01
RMM:  28    -0.417948349761E+02   -0.69826E-02   -0.48005E-04  1092   0.132E-01    0.110E+01
RMM:  29    -0.419837106511E+02   -0.18888E+00   -0.21154E-03  1268   0.222E-01    0.131E+01
RMM:  30    -0.420152289990E+02   -0.31518E-01   -0.13694E-03  1271   0.198E-01    0.135E+01
RMM:  31    -0.422305401554E+02   -0.21531E+00   -0.18830E-03  1290   0.239E-01    0.145E+01
RMM:  32    -0.416494773882E+02    0.58106E+00   -0.24317E-03  1293   0.208E-01    0.111E+01
RMM:  33    -0.417528635515E+02   -0.10339E+00   -0.55232E-04  1150   0.131E-01    0.120E+01
RMM:  34    -0.418146865987E+02   -0.61823E-01   -0.22031E-04   928   0.893E-02    0.125E+01
RMM:  35    -0.418559604489E+02   -0.41274E-01   -0.60246E-05   854   0.453E-02    0.127E+01
RMM:  36    -0.416121516250E+02    0.24381E+00   -0.71985E-04  1234   0.140E-01    0.106E+01
RMM:  37    -0.414822680089E+02    0.12988E+00   -0.49151E-04  1180   0.111E-01    0.908E+00
RMM:  38    -0.413777245308E+02    0.10454E+00   -0.52991E-04  1185   0.104E-01    0.609E+00
RMM:  39    -0.412856499168E+02    0.92075E-01   -0.24588E-03  1309   0.276E-01    0.858E-01
RMM:  40    -0.412817818432E+02    0.38681E-02   -0.46169E-03  1298   0.382E-01    0.116E+00
RMM:  41    -0.412790150456E+02    0.27668E-02   -0.70538E-04  1264   0.157E-01    0.110E+00
RMM:  42    -0.412829051889E+02   -0.38901E-02   -0.55354E-04  1167   0.125E-01    0.203E+00
RMM:  43    -0.412875922055E+02   -0.46870E-02   -0.95045E-04  1223   0.144E-01    0.242E+00
RMM:  44    -0.412773292548E+02    0.10263E-01   -0.24310E-04   960   0.773E-02    0.502E-01
RMM:  45    -0.412766040805E+02    0.72517E-03   -0.16959E-04   857   0.865E-02    0.855E-01
RMM:  46    -0.412757709939E+02    0.83309E-03   -0.49124E-05   821   0.465E-02    0.561E-01
RMM:  47    -0.412771384402E+02   -0.13674E-02   -0.23294E-04   889   0.843E-02    0.509E-01
RMM:  48    -0.412755532129E+02    0.15852E-02   -0.10497E-04   835   0.713E-02    0.318E-01
RMM:  49    -0.412756467143E+02   -0.93501E-04   -0.19459E-05   790   0.306E-02
   1 F= -.41275647E+02 E0= -.41275647E+02  d E =0.000000E+00
