 vasp.5.4.4.18Apr17-6-g9f103f2a35 (build Apr 07 2018 02:38:49) complex          
  
 executed on             LinuxIFC date 2018.12.12  12:01:46
 running on   16 total cores
 distrk:  each k-point on   16 cores,    1 groups
 distr:  one band on NCORES_PER_BAND=   1 cores,   16 groups


--------------------------------------------------------------------------------------------------------


 INCAR:
 POTCAR:   PAW_PBE Ni 06Sep2000                   
 POTCAR:   PAW_PBE C 08Apr2002                    
 POTCAR:   PAW_PBE O 08Apr2002                    

 ----------------------------------------------------------------------------- 
|                                                                             |
|           W    W    AA    RRRRR   N    N  II  N    N   GGGG   !!!           |
|           W    W   A  A   R    R  NN   N  II  NN   N  G    G  !!!           |
|           W    W  A    A  R    R  N N  N  II  N N  N  G       !!!           |
|           W WW W  AAAAAA  RRRRR   N  N N  II  N  N N  G  GGG   !            |
|           WW  WW  A    A  R   R   N   NN  II  N   NN  G    G                |
|           W    W  A    A  R    R  N    N  II  N    N   GGGG   !!!           |
|                                                                             |
|      For optimal performance we recommend to set                            |
|        NCORE= 4 - approx SQRT( number of cores)                             |
|      NCORE specifies how many cores store one orbital (NPAR=cpu/NCORE).     |
|      This setting can  greatly improve the performance of VASP for DFT.     |
|      The default,   NCORE=1            might be grossly inefficient         |
|      on modern multi-core architectures or massively parallel machines.     |
|      Do your own testing !!!!                                               |
|      Unfortunately you need to use the default for GW and RPA calculations. |
|      (for HF NCORE is supported but not extensively tested yet)             |
|                                                                             |
 ----------------------------------------------------------------------------- 

 POTCAR:   PAW_PBE Ni 06Sep2000                   
   VRHFIN =Ni:                                                                  
   LEXCH  = PE                                                                  
   EATOM  =  1077.9025 eV,   79.2236 Ry                                         
                                                                                
   TITEL  = PAW_PBE Ni 06Sep2000                                                
   LULTRA =        F    use ultrasoft PP ?                                      
   IUNSCR =        1    unscreen: 0-lin 1-nonlin 2-no                           
   RPACOR =    2.000    partial core radius                                     
   POMASS =   58.690; ZVAL   =   10.000    mass and valenz                      
   RCORE  =    2.300    outmost cutoff radius                                   
   RWIGS  =    2.430; RWIGS  =    1.286    wigner-seitz radius (au A)           
   ENMAX  =  269.533; ENMIN  =  202.150 eV                                      
   RCLOC  =    1.681    cutoff for local pot                                    
   LCOR   =        T    correct aug charges                                     
   LPAW   =        T    paw PP                                                  
   EAUG   =  544.565                                                            
   DEXC   =    -.009                                                            
   RMAX   =    2.808    core radius for proj-oper                               
   RAUG   =    1.300    factor for augmentation sphere                          
   RDEP   =    2.390    radius for radial grids                                 
   QCUT   =   -4.451; QGAM   =    8.902    optimization parameters              
                                                                                
   Description                                                                  
     l     E      TYP  RCUT    TYP  RCUT                                        
     2   .000     23  2.300                                                     
     2   .000     23  2.300                                                     
     0   .000     23  2.300                                                     
     0   .000     23  2.300                                                     
     1  -.200     23  2.300                                                     
     1   .000     23  2.300                                                     
     3   .000      7   .000                                                     
  local pseudopotential read in
  partial core-charges read in
  atomic valenz-charges read in
  non local Contribution for L=           2  read in
    real space projection operators read in
  non local Contribution for L=           2  read in
    real space projection operators read in
  non local Contribution for L=           0  read in
    real space projection operators read in
  non local Contribution for L=           0  read in
    real space projection operators read in
  non local Contribution for L=           1  read in
    real space projection operators read in
  non local Contribution for L=           1  read in
    real space projection operators read in
    PAW grid and wavefunctions read in
 
   number of l-projection  operators is LMAX  =           6
   number of lm-projection operators is LMMAX =          18
 
 POTCAR:   PAW_PBE C 08Apr2002                    
   VRHFIN =C: s2p2                                                              
   LEXCH  = PE                                                                  
   EATOM  =   147.1560 eV,   10.8157 Ry                                         
                                                                                
   TITEL  = PAW_PBE C 08Apr2002                                                 
   LULTRA =        F    use ultrasoft PP ?                                      
   IUNSCR =        0    unscreen: 0-lin 1-nonlin 2-no                           
   RPACOR =     .000    partial core radius                                     
   POMASS =   12.011; ZVAL   =    4.000    mass and valenz                      
   RCORE  =    1.500    outmost cutoff radius                                   
   RWIGS  =    1.630; RWIGS  =     .863    wigner-seitz radius (au A)           
   ENMAX  =  400.000; ENMIN  =  300.000 eV                                      
   ICORE  =        2    local potential                                         
   LCOR   =        T    correct aug charges                                     
   LPAW   =        T    paw PP                                                  
   EAUG   =  644.873                                                            
   DEXC   =     .000                                                            
   RMAX   =    2.266    core radius for proj-oper                               
   RAUG   =    1.300    factor for augmentation sphere                          
   RDEP   =    1.501    radius for radial grids                                 
   RDEPT  =    1.300    core radius for aug-charge                              
   QCUT   =   -5.516; QGAM   =   11.032    optimization parameters              
                                                                                
   Description                                                                  
     l     E      TYP  RCUT    TYP  RCUT                                        
     0   .000     23  1.200                                                     
     0   .000     23  1.200                                                     
     1   .000     23  1.500                                                     
     1  2.500     23  1.500                                                     
     2   .000      7  1.500                                                     
  local pseudopotential read in
  atomic valenz-charges read in
  non local Contribution for L=           0  read in
    real space projection operators read in
  non local Contribution for L=           0  read in
    real space projection operators read in
  non local Contribution for L=           1  read in
    real space projection operators read in
  non local Contribution for L=           1  read in
    real space projection operators read in
    PAW grid and wavefunctions read in
 
   number of l-projection  operators is LMAX  =           4
   number of lm-projection operators is LMMAX =           8
 
 POTCAR:   PAW_PBE O 08Apr2002                    
   VRHFIN =O: s2p4                                                              
   LEXCH  = PE                                                                  
   EATOM  =   432.3788 eV,   31.7789 Ry                                         
                                                                                
   TITEL  = PAW_PBE O 08Apr2002                                                 
   LULTRA =        F    use ultrasoft PP ?                                      
   IUNSCR =        0    unscreen: 0-lin 1-nonlin 2-no                           
   RPACOR =     .000    partial core radius                                     
   POMASS =   16.000; ZVAL   =    6.000    mass and valenz                      
   RCORE  =    1.520    outmost cutoff radius                                   
   RWIGS  =    1.550; RWIGS  =     .820    wigner-seitz radius (au A)           
   ENMAX  =  400.000; ENMIN  =  300.000 eV                                      
   ICORE  =        2    local potential                                         
   LCOR   =        T    correct aug charges                                     
   LPAW   =        T    paw PP                                                  
   EAUG   =  605.392                                                            
   DEXC   =     .000                                                            
   RMAX   =    2.264    core radius for proj-oper                               
   RAUG   =    1.300    factor for augmentation sphere                          
   RDEP   =    1.550    radius for radial grids                                 
   QCUT   =   -5.520; QGAM   =   11.041    optimization parameters              
                                                                                
   Description                                                                  
     l     E      TYP  RCUT    TYP  RCUT                                        
     0   .000     23  1.200                                                     
     0  -.700     23  1.200                                                     
     1   .000     23  1.520                                                     
     1   .600     23  1.520                                                     
     2   .000      7  1.500                                                     
  local pseudopotential read in
  atomic valenz-charges read in
  non local Contribution for L=           0  read in
    real space projection operators read in
  non local Contribution for L=           0  read in
    real space projection operators read in
  non local Contribution for L=           1  read in
    real space projection operators read in
  non local Contribution for L=           1  read in
    real space projection operators read in
    PAW grid and wavefunctions read in
 
   number of l-projection  operators is LMAX  =           4
   number of lm-projection operators is LMMAX =           8
 
 PAW_PBE Ni 06Sep2000                   :
 energy of atom  1       EATOM=-1077.9025
 kinetic energy error for atom=    0.0101 (will be added to EATOM!!)
 PAW_PBE C 08Apr2002                    :
 energy of atom  2       EATOM= -147.1560
 kinetic energy error for atom=    0.0288 (will be added to EATOM!!)
 PAW_PBE O 08Apr2002                    :
 energy of atom  3       EATOM= -432.3788
 kinetic energy error for atom=    0.1156 (will be added to EATOM!!)
 
 
 POSCAR: Ni - (111) + CO ontop                   
  positions in direct lattice
  velocities in cartesian coordinates
 exchange correlation table for  LEXCH =        8
   RHO(1)=    0.500       N(1)  =     2000
   RHO(2)=  100.500       N(2)  =     4000

 VTST: version 3.1, (03/28/14)

 CHAIN: initializing optimizer
 
 OPT: Using VASP Dynamics algorithm
 CHAIN: Read ICHAIN            0
 
 POSCAR: Ni - (111) + CO ontop                   
  positions in direct lattice
  velocities in cartesian coordinates
 


--------------------------------------------------------------------------------------------------------


 ion  position               nearest neighbor table
   1  0.000  0.000  0.000-   2 2.50   2 2.50   2 2.50
   2  0.333  0.667  0.111-   3 2.50   1 2.50   3 2.50   1 2.50   1 2.50   3 2.50
   3  0.667  0.333  0.222-   4 2.49   4 2.49   4 2.49   2 2.50   2 2.50   2 2.50
   4  0.000  0.000  0.333-   3 2.49   3 2.49   3 2.49   5 2.50   5 2.50   5 2.50
   5  0.333  0.667  0.445-   6 1.75   4 2.50   4 2.50   4 2.50
   6  0.333  0.667  0.540-   7 1.15   5 1.75
   7  0.333  0.667  0.603-   6 1.15
 
  LATTYP: Found a hexagonal cell.
 ALAT       =     2.4960868274
 C/A-ratio  =     7.3484695206
  
  Lattice vectors:
  
 A1 = (   2.4960869334,   0.0000000000,   0.0000000000)
 A2 = (  -1.2480434667,   2.1616745720,   0.0000000000)
 A3 = (   0.0000000000,   0.0000000000,  18.3424179720)


Analysis of symmetry for initial positions (statically):
=====================================================================
 Subroutine PRICEL returns:
 Original cell was already a primitive cell.
 

 Routine SETGRP: Setting up the symmetry group for a 
 hexagonal supercell.


 Subroutine GETGRP returns: Found  6 space group operations
 (whereof  6 operations were pure point group operations)
 out of a pool of 24 trial point group operations.


The static configuration has the point symmetry C_3v.


Analysis of symmetry for dynamics (positions and initial velocities):
=====================================================================
 Subroutine PRICEL returns:
 Original cell was already a primitive cell.
 

 Routine SETGRP: Setting up the symmetry group for a 
 hexagonal supercell.


 Subroutine GETGRP returns: Found  6 space group operations
 (whereof  6 operations were pure point group operations)
 out of a pool of 24 trial point group operations.


The dynamic configuration has the point symmetry C_3v.


Analysis of constrained symmetry for selective dynamics:
=====================================================================
 Subroutine PRICEL returns:
 Original cell was already a primitive cell.
 

 Routine SETGRP: Setting up the symmetry group for a 
 hexagonal supercell.


 Subroutine GETGRP returns: Found  6 space group operations
 (whereof  6 operations were pure point group operations)
 out of a pool of 24 trial point group operations.


The constrained configuration has the point symmetry C_3v.


 Subroutine INISYM returns: Found  6 space group operations
 (whereof  6 operations are pure point group operations),
 and found     1 'primitive' translations

 
 
 KPOINTS: K-POINTS                                

Automatic generation of k-mesh.
Space group operators:
 irot       det(A)        alpha          n_x          n_y          n_z        tau_x        tau_y        tau_z
    1     1.000000     0.000001     1.000000     0.000000     0.000000     0.000000     0.000000     0.000000
    2     1.000000   120.000000     0.000000     0.000000    -1.000000     0.000000     0.000000     0.000000
    3     1.000000   120.000000     0.000000     0.000000     1.000000     0.000000     0.000000     0.000000
    4    -1.000000   179.999999     1.000000     0.000000     0.000000     0.000000     0.000000     0.000000
    5    -1.000000   179.999999     0.500000    -0.866025     0.000000     0.000000     0.000000     0.000000
    6    -1.000000   179.999999    -0.500000    -0.866025     0.000000     0.000000     0.000000     0.000000
 
 Subroutine IBZKPT returns following result:
 ===========================================
 
 Found     12 irreducible k-points:
 
 Following reciprocal coordinates:
            Coordinates               Weight
  0.000000  0.000000  0.000000      1.000000
  0.111111  0.000000  0.000000      6.000000
  0.222222 -0.000000  0.000000      6.000000
  0.333333  0.000000  0.000000      6.000000
  0.444444 -0.000000  0.000000      6.000000
  0.111111  0.111111  0.000000      6.000000
  0.222222  0.111111  0.000000     12.000000
  0.333333  0.111111  0.000000     12.000000
  0.444444  0.111111  0.000000      6.000000
  0.222222  0.222222  0.000000      6.000000
  0.333333  0.222222  0.000000     12.000000
  0.333333  0.333333  0.000000      2.000000
 
 Following cartesian coordinates:
            Coordinates               Weight
  0.000000  0.000000  0.000000      1.000000
  0.157135  0.090722  0.000000      6.000000
  0.314270  0.181444  0.000000      6.000000
  0.471405  0.272166  0.000000      6.000000
  0.628539  0.362887  0.000000      6.000000
  0.157135  0.272166  0.000000      6.000000
  0.314270  0.362887  0.000000     12.000000
  0.471405  0.453609  0.000000     12.000000
  0.628539  0.544331  0.000000      6.000000
  0.314270  0.544331  0.000000      6.000000
  0.471405  0.635053  0.000000     12.000000
  0.471405  0.816497  0.000000      2.000000
 
 TETIRR: Found     43 inequivalent tetrahedra from      486


--------------------------------------------------------------------------------------------------------




 Dimension of arrays:
   k-points           NKPTS =     12   k-points in BZ     NKDIM =     12   number of bands    NBANDS=     48
   number of dos      NEDOS =    301   number of ions     NIONS =      7
   non local maximal  LDIM  =      6   non local SUM 2l+1 LMDIM =     18
   total plane-waves  NPLWV =  12960
   max r-space proj   IRMAX =      1   max aug-charges    IRDMAX=   4444
   dimension x,y,z NGX =    12 NGY =   12 NGZ =   90
   dimension x,y,z NGXF=    24 NGYF=   24 NGZF=  180
   support grid    NGXF=    24 NGYF=   24 NGZF=  180
   ions per type =               5   1   1
   NGX,Y,Z   is equivalent  to a cutoff of   7.99,  7.99,  8.16 a.u.
   NGXF,Y,Z  is equivalent  to a cutoff of  15.98, 15.98, 16.31 a.u.

 SYSTEM =  CO adsorption on Ni(111)                
 POSCAR =  Ni - (111) + CO ontop                   

 Startparameter for this run:
   NWRITE =      2    write-flag & timer
   PREC   = normal    normal or accurate (medium, high low for compatibility)
   ISTART =      0    job   : 0-new  1-cont  2-samecut
   ICHARG =      2    charge: 1-file 2-atom 10-const
   ISPIN  =      1    spin polarized calculation?
   LNONCOLLINEAR =      F non collinear calculations
   LSORBIT =      F    spin-orbit coupling
   INIWAV =      1    electr: 0-lowe 1-rand  2-diag
   LASPH  =      F    aspherical Exc in radial PAW
   METAGGA=      F    non-selfconsistent MetaGGA calc.

 Electronic Relaxation 1
   ENCUT  =  400.0 eV  29.40 Ry    5.42 a.u.   4.07  4.07 29.91*2*pi/ulx,y,z
   ENINI  =  400.0     initial cutoff
   ENAUG  =  644.9 eV  augmentation charge cutoff
   NELM   =     60;   NELMIN=  2; NELMDL= -5     # of ELM steps 
   EDIFF  = 0.1E-03   stopping-criterion for ELM
   LREAL  =      F    real-space projection
   NLSPLINE    = F    spline interpolate recip. space projectors
   LCOMPAT=      F    compatible to vasp.4.4
   GGA_COMPAT  = T    GGA compatible to vasp.4.4-vasp.4.6
   LMAXPAW     = -100 max onsite density
   LMAXMIX     =    2 max onsite mixed and CHGCAR
   VOSKOWN=      0    Vosko Wilk Nusair interpolation
   ROPT   =    0.00000   0.00000   0.00000
 Ionic relaxation
   EDIFFG = 0.1E-02   stopping-criterion for IOM
   NSW    =      0    number of steps for IOM
   NBLOCK =      1;   KBLOCK =      1    inner block; outer block 
   IBRION =     -1    ionic relax: 0-MD 1-quasi-New 2-CG
   NFREE  =      0    steps in history (QN), initial steepest desc. (CG)
   ISIF   =      2    stress and relaxation
   IWAVPR =     10    prediction:  0-non 1-charg 2-wave 3-comb
   ISYM   =      2    0-nonsym 1-usesym 2-fastsym
   LCORR  =      T    Harris-Foulkes like correction to forces

   POTIM  = 0.5000    time-step for ionic-motion
   TEIN   =    0.0    initial temperature
   TEBEG  =    0.0;   TEEND  =   0.0 temperature during run
   SMASS  =  -3.00    Nose mass-parameter (am)
   estimated Nose-frequenzy (Omega)   =  0.10E-29 period in steps =****** mass=  -0.142E-27a.u.
   SCALEE = 1.0000    scale energy and forces
   NPACO  =    256;   APACO  = 16.0  distance and # of slots for P.C.
   PSTRESS=    0.0 pullay stress

  Mass of Ions in am
   POMASS =  58.69 12.01 16.00
  Ionic Valenz
   ZVAL   =  10.00  4.00  6.00
  Atomic Wigner-Seitz radii
   RWIGS  =  -1.00 -1.00 -1.00
  virtual crystal weights 
   VCA    =   1.00  1.00  1.00
   NELECT =      60.0000    total number of electrons
   NUPDOWN=      -1.0000    fix difference up-down

 DOS related values:
   EMIN   =  10.00;   EMAX   =-10.00  energy-range for DOS
   EFERMI =   0.00
   ISMEAR =    -5;   SIGMA  =   0.20  broadening in eV -4-tet -1-fermi 0-gaus

 Electronic relaxation 2 (details)
   IALGO  =     68    algorithm
   LDIAG  =      T    sub-space diagonalisation (order eigenvalues)
   LSUBROT=      F    optimize rotation matrix (better conditioning)
   TURBO    =      0    0=normal 1=particle mesh
   IRESTART =      0    0=no restart 2=restart with 2 vectors
   NREBOOT  =      0    no. of reboots
   NMIN     =      0    reboot dimension
   EREF     =   0.00    reference energy to select bands
   IMIX   =      4    mixing-type and parameters
     AMIX     =   0.40;   BMIX     =  1.00
     AMIX_MAG =   1.60;   BMIX_MAG =  1.00
     AMIN     =   0.10
     WC   =   100.;   INIMIX=   1;  MIXPRE=   1;  MAXMIX= -45

 Intra band minimization:
   WEIMIN = 0.0000     energy-eigenvalue tresh-hold
   EBREAK =  0.52E-06  absolut break condition
   DEPER  =   0.30     relativ break condition  

   TIME   =   0.40     timestep for ELM

  volume/ion in A,a.u.               =      14.14        95.41
  Fermi-wavevector in a.u.,A,eV,Ry     =   1.385553  2.618315 26.119870  1.919756
  Thomas-Fermi vector in A             =   2.509952
 
 Write flags
   LWAVE        =      T    write WAVECAR
   LDOWNSAMPLE  =      F    k-point downsampling of WAVECAR
   LCHARG       =      T    write CHGCAR
   LVTOT        =      F    write LOCPOT, total local potential
   LVHAR        =      T    write LOCPOT, Hartree potential only
   LELF         =      F    write electronic localiz. function (ELF)
   LORBIT       =     11    0 simple, 1 ext, 2 COOP (PROOUT), +10 PAW based schemes


 Dipole corrections
   LMONO  =      F    monopole corrections only (constant potential shift)
   LDIPOL =      T    correct potential (dipole corrections)
   IDIPOL =      3    1-x, 2-y, 3-z, 4-all directions 
   EPSILON=  1.0000000 bulk dielectric constant

 Exchange correlation treatment:
   GGA     =    --    GGA type
   LEXCH   =     8    internal setting for exchange type
   VOSKOWN=      0    Vosko Wilk Nusair interpolation
   LHFCALC =     F    Hartree Fock is set to
   LHFONE  =     F    Hartree Fock one center treatment
   AEXX    =    0.0000 exact exchange contribution

 Linear response parameters
   LEPSILON=     F    determine dielectric tensor
   LRPA    =     F    only Hartree local field effects (RPA)
   LNABLA  =     F    use nabla operator in PAW spheres
   LVEL    =     F    velocity operator in full k-point grid
   LINTERFAST=   F  fast interpolation
   KINTER  =     0    interpolate to denser k-point grid
   CSHIFT  =0.1000    complex shift for real part using Kramers Kronig
   OMEGAMAX=  -1.0    maximum frequency
   DEG_THRESHOLD= 0.2000000E-02 threshold for treating states as degnerate
   RTIME   =   -0.100 relaxation time in fs
  (WPLASMAI=    0.000 imaginary part of plasma frequency in eV, 0.658/RTIME)
   DFIELD  = 0.0000000 0.0000000 0.0000000 field for delta impulse in time
 
 Orbital magnetization related:
   ORBITALMAG=     F  switch on orbital magnetization
   LCHIMAG   =     F  perturbation theory with respect to B field
   DQ        =  0.001000  dq finite difference perturbation B field
   LLRAUG    =     F  two centre corrections for induced B field



--------------------------------------------------------------------------------------------------------


 Static calculation
 charge density and potential will be updated during run
 non-spin polarized calculation
 RMM-DIIS sequential band-by-band and
  variant of blocked Davidson during initial phase
 perform sub-space diagonalisation
    before iterative eigenvector-optimisation
 modified Broyden-mixing scheme, WC =      100.0
 initial mixing is a Kerker type mixing with AMIX =  0.4000 and BMIX =      1.0000
 Hartree-type preconditioning will be used
 using additional bands           18
 reciprocal scheme for non local part
 use partial core corrections
 calculate Harris-corrections to forces 
   (improved forces if not selfconsistent)
 use gradient corrections 
 use of overlap-Matrix (Vanderbilt PP)
 Fermi weights with tetrahedron method with Bloechl corrections


--------------------------------------------------------------------------------------------------------


  energy-cutoff  :      400.00
  volume of cell :       98.97
      direct lattice vectors                 reciprocal lattice vectors
     2.496086933  0.000000000  0.000000000     0.400627072  0.231302161  0.000000000
    -1.248043467  2.161674572  0.000000000     0.000000000  0.462604322  0.000000000
     0.000000000  0.000000000 18.342417972     0.000000000  0.000000000  0.054518439

  length of vectors
     2.496086933  2.496086827 18.342417972     0.462604302  0.462604322  0.054518439


 
 k-points in units of 2pi/SCALE and weight: K-POINTS                                
   0.00000000  0.00000000  0.00000000       0.012
   0.15713484  0.09072185  0.00000000       0.074
   0.31426968  0.18144370  0.00000000       0.074
   0.47140452  0.27216554  0.00000000       0.074
   0.62853936  0.36288739  0.00000000       0.074
   0.15713484  0.27216554  0.00000000       0.074
   0.31426968  0.36288739  0.00000000       0.148
   0.47140452  0.45360924  0.00000000       0.148
   0.62853936  0.54433109  0.00000000       0.074
   0.31426968  0.54433109  0.00000000       0.074
   0.47140452  0.63505293  0.00000000       0.148
   0.47140452  0.81649663  0.00000000       0.025
 
 k-points in reciprocal lattice and weights: K-POINTS                                
   0.00000000  0.00000000  0.00000000       0.012
   0.11111111  0.00000000  0.00000000       0.074
   0.22222222 -0.00000000  0.00000000       0.074
   0.33333333  0.00000000  0.00000000       0.074
   0.44444444 -0.00000000  0.00000000       0.074
   0.11111111  0.11111111  0.00000000       0.074
   0.22222222  0.11111111  0.00000000       0.148
   0.33333333  0.11111111  0.00000000       0.148
   0.44444444  0.11111111  0.00000000       0.074
   0.22222222  0.22222222  0.00000000       0.074
   0.33333333  0.22222222  0.00000000       0.148
   0.33333333  0.33333333  0.00000000       0.025
 
 position of ions in fractional coordinates (direct lattice) 
   0.00000000  0.00000000  0.00000000
   0.33333333  0.66666667  0.11111111
   0.66666667  0.33333333  0.22222222
   0.00000000  0.00000000  0.33303913
   0.33333333  0.66666667  0.44454220
   0.33333333  0.66666667  0.54020250
   0.33333333  0.66666667  0.60315365
 
 position of ions in cartesian coordinates  (Angst):
   0.00000000  0.00000000  0.00000000
  -0.00000001  1.44111639  2.03804642
   1.24804348  0.72055818  4.07609284
   0.00000000  0.00000000  6.10874291
  -0.00000001  1.44111639  8.15397887
  -0.00000001  1.44111639  9.90862013
  -0.00000001  1.44111639 11.06329641
 


--------------------------------------------------------------------------------------------------------


 k-point  1 :   0.0000 0.0000 0.0000  plane waves:    1733
 k-point  2 :   0.1111 0.0000 0.0000  plane waves:    1735
 k-point  3 :   0.2222-0.0000 0.0000  plane waves:    1789
 k-point  4 :   0.3333 0.0000 0.0000  plane waves:    1791
 k-point  5 :   0.4444-0.0000 0.0000  plane waves:    1803
 k-point  6 :   0.1111 0.1111 0.0000  plane waves:    1778
 k-point  7 :   0.2222 0.1111 0.0000  plane waves:    1801
 k-point  8 :   0.3333 0.1111 0.0000  plane waves:    1813
 k-point  9 :   0.4444 0.1111 0.0000  plane waves:    1824
 k-point 10 :   0.2222 0.2222 0.0000  plane waves:    1794
 k-point 11 :   0.3333 0.2222 0.0000  plane waves:    1809
 k-point 12 :   0.3333 0.3333 0.0000  plane waves:    1800

 maximum and minimum number of plane-waves per node :      1824     1733

 maximum number of plane-waves:      1824
 maximum index in each direction: 
   IXMAX=    4   IYMAX=    4   IZMAX=   29
   IXMIN=   -4   IYMIN=   -4   IZMIN=  -29


 serial   3D FFT for wavefunctions
 parallel 3D FFT for charge:
    minimum data exchange during FFTs selected (reduces bandwidth)


 total amount of memory used by VASP MPI-rank0    42285. kBytes
=======================================================================

   base      :      30000. kBytes
   nonl-proj :       9659. kBytes
   fftplans  :        325. kBytes
   grid      :       1078. kBytes
   one-center:        108. kBytes
   wavefun   :       1115. kBytes
 
     INWAV:  cpu time    0.0000: real time    0.0000
 Broyden mixing: mesh for mixing (old mesh)
   NGX =  9   NGY =  9   NGZ = 59
  (NGX  = 24   NGY  = 24   NGZ  =180)
  gives a total of   4779 points

 initial charge density was supplied:
 charge density of overlapping atoms calculated
 number of electron      60.0000000 magnetization 
 keeping initial charge density in first step


--------------------------------------------------------------------------------------------------------


 Maximum index for augmentation-charges          426 (set IRDMAX)


--------------------------------------------------------------------------------------------------------


 First call to EWALD:  gamma=   0.383
 Maximum number of real-space cells 5x 5x 1
 Maximum number of reciprocal cells 2x 2x 9

    FEWALD:  cpu time    0.0020: real time    0.0020


--------------------------------------- Iteration      1(   1)  ---------------------------------------


    POTLOK:  cpu time    0.0110: real time    0.0120
    SETDIJ:  cpu time    0.0030: real time    0.0030
     EDDAV:  cpu time    0.3279: real time    0.3292
 BZINTS: Fermi energy: 12.077572; 60.000000 electrons
         Band energy: 360.635145;  BLOECHL correction: -0.080738
       DOS:  cpu time    0.0040: real time    0.0040
    --------------------------------------------
      LOOP:  cpu time    0.3459: real time    0.3483

 eigenvalue-minimisations  :  1152
 total energy-change (2. order) : 0.3752012E+03  (-0.2424014E+04)
 number of electron      60.0000000 magnetization 
 augmentation part       60.0000000 magnetization 

 DIPCOR: dipole corrections for dipol
 direction  3 min pos   140,
 dipolmoment           0.000000      0.000000      0.002406 electrons x Angstroem
 Tr[quadrupol]       -58.295754

 energy correction for charged system         0.000000 eV
 dipol+quadrupol energy correction           -0.000005 eV
 added-field ion interaction         -0.044826 eV  (added to PSCEN)


 Free energy of the ion-electron system (eV)
  ---------------------------------------------------
  alpha Z        PSCENC =       331.93813807
  Ewald energy   TEWEN  =      4482.84834414
  -Hartree energ DENC   =    -10630.72348067
  -exchange      EXHF   =         0.00000000
  -V(xc)+E(xc)   XCENC  =       198.75634636
  PAW double counting   =      4636.95231481    -4974.05826215
  entropy T*S    EENTRO =         0.00000000
  eigenvalues    EBANDS =       360.63514483
  atomic energy  EATOM  =      5968.85262168
  Solvation  Ediel_sol  =         0.00000000
  ---------------------------------------------------
  free energy    TOTEN  =       375.20116708 eV

  energy without entropy =      375.20116708  energy(sigma->0) =      375.20116708


--------------------------------------------------------------------------------------------------------




--------------------------------------- Iteration      1(   2)  ---------------------------------------


     EDDAV:  cpu time    0.4129: real time    0.4145
 BZINTS: Fermi energy:  3.688797; 60.000000 electrons
         Band energy: -32.330011;  BLOECHL correction: -0.052186
       DOS:  cpu time    0.0040: real time    0.0042
    --------------------------------------------
      LOOP:  cpu time    0.4169: real time    0.4187

 eigenvalue-minimisations  :  1168
 total energy-change (2. order) :-0.3929652E+03  (-0.3619937E+03)
 number of electron      60.0000000 magnetization 
 augmentation part       60.0000000 magnetization 

 DIPCOR: dipole corrections for dipol
 direction  3 min pos   140,
 dipolmoment           0.000000      0.000000      0.002406 electrons x Angstroem
 Tr[quadrupol]       -58.295754

 energy correction for charged system         0.000000 eV
 dipol+quadrupol energy correction           -0.000005 eV
 added-field ion interaction         -0.044826 eV  (added to PSCEN)


 Free energy of the ion-electron system (eV)
  ---------------------------------------------------
  alpha Z        PSCENC =       331.93813807
  Ewald energy   TEWEN  =      4482.84834414
  -Hartree energ DENC   =    -10630.72348067
  -exchange      EXHF   =         0.00000000
  -V(xc)+E(xc)   XCENC  =       198.75634636
  PAW double counting   =      4636.95231481    -4974.05826215
  entropy T*S    EENTRO =         0.00000000
  eigenvalues    EBANDS =       -32.33001112
  atomic energy  EATOM  =      5968.85262168
  Solvation  Ediel_sol  =         0.00000000
  ---------------------------------------------------
  free energy    TOTEN  =       -17.76398888 eV

  energy without entropy =      -17.76398888  energy(sigma->0) =      -17.76398888


--------------------------------------------------------------------------------------------------------




--------------------------------------- Iteration      1(   3)  ---------------------------------------


     EDDAV:  cpu time    0.4029: real time    0.4027
 BZINTS: Fermi energy:  3.285305; 60.000000 electrons
         Band energy: -62.019843;  BLOECHL correction: -0.075173
       DOS:  cpu time    0.0040: real time    0.0041
    --------------------------------------------
      LOOP:  cpu time    0.4069: real time    0.4068

 eigenvalue-minimisations  :  1408
 total energy-change (2. order) :-0.2968983E+02  (-0.2868233E+02)
 number of electron      60.0000000 magnetization 
 augmentation part       60.0000000 magnetization 

 DIPCOR: dipole corrections for dipol
 direction  3 min pos   140,
 dipolmoment           0.000000      0.000000      0.002406 electrons x Angstroem
 Tr[quadrupol]       -58.295754

 energy correction for charged system         0.000000 eV
 dipol+quadrupol energy correction           -0.000005 eV
 added-field ion interaction         -0.044826 eV  (added to PSCEN)


 Free energy of the ion-electron system (eV)
  ---------------------------------------------------
  alpha Z        PSCENC =       331.93813807
  Ewald energy   TEWEN  =      4482.84834414
  -Hartree energ DENC   =    -10630.72348067
  -exchange      EXHF   =         0.00000000
  -V(xc)+E(xc)   XCENC  =       198.75634636
  PAW double counting   =      4636.95231481    -4974.05826215
  entropy T*S    EENTRO =         0.00000000
  eigenvalues    EBANDS =       -62.01984317
  atomic energy  EATOM  =      5968.85262168
  Solvation  Ediel_sol  =         0.00000000
  ---------------------------------------------------
  free energy    TOTEN  =       -47.45382093 eV

  energy without entropy =      -47.45382093  energy(sigma->0) =      -47.45382093


--------------------------------------------------------------------------------------------------------




--------------------------------------- Iteration      1(   4)  ---------------------------------------


     EDDAV:  cpu time    0.3679: real time    0.3687
 BZINTS: Fermi energy:  3.280044; 60.000000 electrons
         Band energy: -62.479708;  BLOECHL correction: -0.074453
       DOS:  cpu time    0.0050: real time    0.0043
    --------------------------------------------
      LOOP:  cpu time    0.3729: real time    0.3730

 eigenvalue-minimisations  :  1296
 total energy-change (2. order) :-0.4598643E+00  (-0.4588872E+00)
 number of electron      60.0000000 magnetization 
 augmentation part       60.0000000 magnetization 

 DIPCOR: dipole corrections for dipol
 direction  3 min pos   140,
 dipolmoment           0.000000      0.000000      0.002406 electrons x Angstroem
 Tr[quadrupol]       -58.295754

 energy correction for charged system         0.000000 eV
 dipol+quadrupol energy correction           -0.000005 eV
 added-field ion interaction         -0.044826 eV  (added to PSCEN)


 Free energy of the ion-electron system (eV)
  ---------------------------------------------------
  alpha Z        PSCENC =       331.93813807
  Ewald energy   TEWEN  =      4482.84834414
  -Hartree energ DENC   =    -10630.72348067
  -exchange      EXHF   =         0.00000000
  -V(xc)+E(xc)   XCENC  =       198.75634636
  PAW double counting   =      4636.95231481    -4974.05826215
  entropy T*S    EENTRO =         0.00000000
  eigenvalues    EBANDS =       -62.47970750
  atomic energy  EATOM  =      5968.85262168
  Solvation  Ediel_sol  =         0.00000000
  ---------------------------------------------------
  free energy    TOTEN  =       -47.91368526 eV

  energy without entropy =      -47.91368526  energy(sigma->0) =      -47.91368526


--------------------------------------------------------------------------------------------------------




--------------------------------------- Iteration      1(   5)  ---------------------------------------


     EDDAV:  cpu time    0.4179: real time    0.4183
 BZINTS: Fermi energy:  3.279990; 60.000000 electrons
         Band energy: -62.487139;  BLOECHL correction: -0.074446
       DOS:  cpu time    0.0040: real time    0.0043
    CHARGE:  cpu time    0.0120: real time    0.0121
    MIXING:  cpu time    0.0010: real time    0.0005
    --------------------------------------------
      LOOP:  cpu time    0.4349: real time    0.4352

 eigenvalue-minimisations  :  1456
 total energy-change (2. order) :-0.7431743E-02  (-0.7434115E-02)
 number of electron      59.9999525 magnetization 
 augmentation part       28.4915814 magnetization 

 DIPCOR: dipole corrections for dipol
 direction  3 min pos   140,
 dipolmoment           0.000000      0.000000      0.002406 electrons x Angstroem
 Tr[quadrupol]       -58.295754

 energy correction for charged system         0.000000 eV
 dipol+quadrupol energy correction           -0.000005 eV
 added-field ion interaction         -0.044826 eV  (added to PSCEN)


 Broyden mixing:
  rms(total) = 0.21826E+01    rms(broyden)= 0.21821E+01
  rms(prec ) = 0.24275E+01
  weight for this iteration     100.00

 Free energy of the ion-electron system (eV)
  ---------------------------------------------------
  alpha Z        PSCENC =       331.93813807
  Ewald energy   TEWEN  =      4482.84834414
  -Hartree energ DENC   =    -10630.72348067
  -exchange      EXHF   =         0.00000000
  -V(xc)+E(xc)   XCENC  =       198.75634636
  PAW double counting   =      4636.95231481    -4974.05826215
  entropy T*S    EENTRO =         0.00000000
  eigenvalues    EBANDS =       -62.48713924
  atomic energy  EATOM  =      5968.85262168
  Solvation  Ediel_sol  =         0.00000000
  ---------------------------------------------------
  free energy    TOTEN  =       -47.92111700 eV

  energy without entropy =      -47.92111700  energy(sigma->0) =      -47.92111700


--------------------------------------------------------------------------------------------------------




--------------------------------------- Iteration      1(   6)  ---------------------------------------


    POTLOK:  cpu time    0.0080: real time    0.0078
    SETDIJ:  cpu time    0.0030: real time    0.0028
    EDDIAG:  cpu time    0.0730: real time    0.0738
  RMM-DIIS:  cpu time    0.1740: real time    0.1734
    ORTHCH:  cpu time    0.0100: real time    0.0106
 BZINTS: Fermi energy:  0.123545; 60.000000 electrons
         Band energy:-235.110492;  BLOECHL correction: -0.093672
       DOS:  cpu time    0.0040: real time    0.0039
    CHARGE:  cpu time    0.0110: real time    0.0111
    MIXING:  cpu time    0.0010: real time    0.0005
    --------------------------------------------
      LOOP:  cpu time    0.2840: real time    0.2840

 eigenvalue-minimisations  :  1388
 total energy-change (2. order) :-0.1760522E+02  (-0.5294258E+01)
 number of electron      59.9999337 magnetization 
 augmentation part       35.4674047 magnetization 

 DIPCOR: dipole corrections for dipol
 direction  3 min pos   141,
 dipolmoment           0.000000      0.000000      0.244792 electrons x Angstroem
 Tr[quadrupol]       -57.793692

 energy correction for charged system         0.000000 eV
 dipol+quadrupol energy correction           -0.054780 eV
 added-field ion interaction         -1.824234 eV  (added to PSCEN)


 Broyden mixing:
  rms(total) = 0.32935E+01    rms(broyden)= 0.32926E+01
  rms(prec ) = 0.56410E+01
  weight for this iteration     100.00

 eigenvalues of (default mixing * dielectric matrix)
  average eigenvalue GAMMA=   0.4030
  0.4030

 Free energy of the ion-electron system (eV)
  ---------------------------------------------------
  alpha Z        PSCENC =       330.10395487
  Ewald energy   TEWEN  =      4482.84834414
  -Hartree energ DENC   =    -10494.42722824
  -exchange      EXHF   =         0.00000000
  -V(xc)+E(xc)   XCENC  =       193.01866096
  PAW double counting   =      4604.05370031    -4914.86589402
  entropy T*S    EENTRO =         0.00000000
  eigenvalues    EBANDS =      -235.11049208
  atomic energy  EATOM  =      5968.85262168
  Solvation  Ediel_sol  =         0.00000000
  ---------------------------------------------------
  free energy    TOTEN  =       -65.52633239 eV

  energy without entropy =      -65.52633239  energy(sigma->0) =      -65.52633239


--------------------------------------------------------------------------------------------------------




--------------------------------------- Iteration      1(   7)  ---------------------------------------


    POTLOK:  cpu time    0.0080: real time    0.0081
    SETDIJ:  cpu time    0.0030: real time    0.0028
    EDDIAG:  cpu time    0.0740: real time    0.0739
  RMM-DIIS:  cpu time    0.1740: real time    0.1744
    ORTHCH:  cpu time    0.0100: real time    0.0105
 BZINTS: Fermi energy:  6.520748; 60.000000 electrons
         Band energy:-211.433983;  BLOECHL correction: -0.062524
       DOS:  cpu time    0.0050: real time    0.0041
    CHARGE:  cpu time    0.0100: real time    0.0105
    MIXING:  cpu time    0.0000: real time    0.0004
    --------------------------------------------
      LOOP:  cpu time    0.2850: real time    0.2846

 eigenvalue-minimisations  :  1450
 total energy-change (2. order) :-0.6603178E+02  (-0.3252834E+01)
 number of electron      59.9999516 magnetization 
 augmentation part       26.3180600 magnetization 

 DIPCOR: dipole corrections for dipol
 direction  3 min pos   142,
 dipolmoment           0.000000      0.000000     -0.490008 electrons x Angstroem
 Tr[quadrupol]       -59.274012

 energy correction for charged system         0.000000 eV
 dipol+quadrupol energy correction           -0.219500 eV
 added-field ion interaction         -1.826068 eV  (added to PSCEN)


 Broyden mixing:
  rms(total) = 0.70430E+01    rms(broyden)= 0.70419E+01
  rms(prec ) = 0.14508E+02
  weight for this iteration     100.00

 eigenvalues of (default mixing * dielectric matrix)
  average eigenvalue GAMMA=   0.2351
  0.4431  0.0271

 Free energy of the ion-electron system (eV)
  ---------------------------------------------------
  alpha Z        PSCENC =       329.93740059
  Ewald energy   TEWEN  =      4482.84834414
  -Hartree energ DENC   =    -10568.73037532
  -exchange      EXHF   =         0.00000000
  -V(xc)+E(xc)   XCENC  =       194.15486892
  PAW double counting   =      4709.14205847    -5036.32904524
  entropy T*S    EENTRO =         0.00000000
  eigenvalues    EBANDS =      -211.43398277
  atomic energy  EATOM  =      5968.85262168
  Solvation  Ediel_sol  =         0.00000000
  ---------------------------------------------------
  free energy    TOTEN  =      -131.55810952 eV

  energy without entropy =     -131.55810952  energy(sigma->0) =     -131.55810952


--------------------------------------------------------------------------------------------------------




--------------------------------------- Iteration      1(   8)  ---------------------------------------


    POTLOK:  cpu time    0.0090: real time    0.0081
    SETDIJ:  cpu time    0.0020: real time    0.0028
    EDDIAG:  cpu time    0.0740: real time    0.0740
  RMM-DIIS:  cpu time    0.1710: real time    0.1708
    ORTHCH:  cpu time    0.0110: real time    0.0105
 BZINTS: Fermi energy:  3.327230; 60.000000 electrons
         Band energy:-119.320737;  BLOECHL correction: -0.055224
       DOS:  cpu time    0.0040: real time    0.0042
    CHARGE:  cpu time    0.0100: real time    0.0105
    MIXING:  cpu time    0.0010: real time    0.0005
    --------------------------------------------
      LOOP:  cpu time    0.2810: real time    0.2813

 eigenvalue-minimisations  :  1361
 total energy-change (2. order) : 0.7473131E+02  (-0.4322337E+00)
 number of electron      59.9999457 magnetization 
 augmentation part       30.0276251 magnetization 

 DIPCOR: dipole corrections for dipol
 direction  3 min pos   143,
 dipolmoment           0.000000      0.000000     -0.092012 electrons x Angstroem
 Tr[quadrupol]       -59.618783

 energy correction for charged system         0.000000 eV
 dipol+quadrupol energy correction           -0.007740 eV
 added-field ion interaction         -1.371476 eV  (added to PSCEN)


 Broyden mixing:
  rms(total) = 0.42756E+01    rms(broyden)= 0.42753E+01
  rms(prec ) = 0.65228E+01
  weight for this iteration     100.00

 eigenvalues of (default mixing * dielectric matrix)
  average eigenvalue GAMMA=   0.1775
  0.4564  0.0380  0.0380

 Free energy of the ion-electron system (eV)
  ---------------------------------------------------
  alpha Z        PSCENC =       330.60375329
  Ewald energy   TEWEN  =      4482.84834414
  -Hartree energ DENC   =    -10582.77795562
  -exchange      EXHF   =         0.00000000
  -V(xc)+E(xc)   XCENC  =       194.06889918
  PAW double counting   =      4723.29055709    -5054.39228285
  entropy T*S    EENTRO =         0.00000000
  eigenvalues    EBANDS =      -119.32073690
  atomic energy  EATOM  =      5968.85262168
  Solvation  Ediel_sol  =         0.00000000
  ---------------------------------------------------
  free energy    TOTEN  =       -56.82679999 eV

  energy without entropy =      -56.82679999  energy(sigma->0) =      -56.82679999


--------------------------------------------------------------------------------------------------------




--------------------------------------- Iteration      1(   9)  ---------------------------------------


    POTLOK:  cpu time    0.0080: real time    0.0079
    SETDIJ:  cpu time    0.0030: real time    0.0028
    EDDIAG:  cpu time    0.0740: real time    0.0745
  RMM-DIIS:  cpu time    0.1710: real time    0.1707
    ORTHCH:  cpu time    0.0100: real time    0.0106
 BZINTS: Fermi energy:  2.128953; 60.000000 electrons
         Band energy:-129.799606;  BLOECHL correction: -0.071657
       DOS:  cpu time    0.0040: real time    0.0034
    CHARGE:  cpu time    0.0120: real time    0.0123
    MIXING:  cpu time    0.0000: real time    0.0004
    --------------------------------------------
      LOOP:  cpu time    0.2820: real time    0.2826

 eigenvalue-minimisations  :  1354
 total energy-change (2. order) : 0.1085232E+02  (-0.2555054E+00)
 number of electron      59.9999454 magnetization 
 augmentation part       31.5218827 magnetization 

 DIPCOR: dipole corrections for dipol
 direction  3 min pos   144,
 dipolmoment           0.000000      0.000000     -0.013020 electrons x Angstroem
 Tr[quadrupol]       -58.993159

 energy correction for charged system         0.000000 eV
 dipol+quadrupol energy correction           -0.000155 eV
 added-field ion interaction         -0.339617 eV  (added to PSCEN)


 Broyden mixing:
  rms(total) = 0.22855E+01    rms(broyden)= 0.22847E+01
  rms(prec ) = 0.32333E+01
  weight for this iteration     100.00

 eigenvalues of (default mixing * dielectric matrix)
  average eigenvalue GAMMA=   0.2537
  0.7079  0.1824  0.0623  0.0623

 Free energy of the ion-electron system (eV)
  ---------------------------------------------------
  alpha Z        PSCENC =       331.64319733
  Ewald energy   TEWEN  =      4482.84834414
  -Hartree energ DENC   =    -10561.28970931
  -exchange      EXHF   =         0.00000000
  -V(xc)+E(xc)   XCENC  =       194.09365454
  PAW double counting   =      4729.87854442    -5062.20153045
  entropy T*S    EENTRO =         0.00000000
  eigenvalues    EBANDS =      -129.79960627
  atomic energy  EATOM  =      5968.85262168
  Solvation  Ediel_sol  =         0.00000000
  ---------------------------------------------------
  free energy    TOTEN  =       -45.97448393 eV

  energy without entropy =      -45.97448393  energy(sigma->0) =      -45.97448393


--------------------------------------------------------------------------------------------------------




--------------------------------------- Iteration      1(  10)  ---------------------------------------


    POTLOK:  cpu time    0.0080: real time    0.0080
    SETDIJ:  cpu time    0.0030: real time    0.0028
    EDDIAG:  cpu time    0.0740: real time    0.0738
  RMM-DIIS:  cpu time    0.1710: real time    0.1706
    ORTHCH:  cpu time    0.0100: real time    0.0106
 BZINTS: Fermi energy:  1.518876; 60.000000 electrons
         Band energy:-140.665498;  BLOECHL correction: -0.057228
       DOS:  cpu time    0.0050: real time    0.0042
    CHARGE:  cpu time    0.0110: real time    0.0116
    MIXING:  cpu time    0.0010: real time    0.0005
    --------------------------------------------
      LOOP:  cpu time    0.2830: real time    0.2822

 eigenvalue-minimisations  :  1338
 total energy-change (2. order) : 0.8996015E+00  (-0.2356218E+00)
 number of electron      59.9999452 magnetization 
 augmentation part       31.6945070 magnetization 

 DIPCOR: dipole corrections for dipol
 direction  3 min pos   144,
 dipolmoment           0.000000      0.000000      0.107112 electrons x Angstroem
 Tr[quadrupol]       -58.451657

 energy correction for charged system         0.000000 eV
 dipol+quadrupol energy correction           -0.010488 eV
 added-field ion interaction          2.793942 eV  (added to PSCEN)


 Broyden mixing:
  rms(total) = 0.20807E+01    rms(broyden)= 0.20804E+01
  rms(prec ) = 0.28477E+01
  weight for this iteration     100.00

 eigenvalues of (default mixing * dielectric matrix)
  average eigenvalue GAMMA=   0.2607
  0.8195  0.1798  0.1798  0.0623  0.0623

 Free energy of the ion-electron system (eV)
  ---------------------------------------------------
  alpha Z        PSCENC =       334.76642276
  Ewald energy   TEWEN  =      4482.84834414
  -Hartree energ DENC   =    -10547.91928108
  -exchange      EXHF   =         0.00000000
  -V(xc)+E(xc)   XCENC  =       194.27006158
  PAW double counting   =      4766.72708145    -5103.95463531
  entropy T*S    EENTRO =         0.00000000
  eigenvalues    EBANDS =      -140.66549769
  atomic energy  EATOM  =      5968.85262168
  Solvation  Ediel_sol  =         0.00000000
  ---------------------------------------------------
  free energy    TOTEN  =       -45.07488245 eV

  energy without entropy =      -45.07488245  energy(sigma->0) =      -45.07488245


--------------------------------------------------------------------------------------------------------




--------------------------------------- Iteration      1(  11)  ---------------------------------------


    POTLOK:  cpu time    0.0080: real time    0.0081
    SETDIJ:  cpu time    0.0020: real time    0.0028
    EDDIAG:  cpu time    0.0740: real time    0.0740
  RMM-DIIS:  cpu time    0.1950: real time    0.1944
    ORTHCH:  cpu time    0.0100: real time    0.0104
 BZINTS: Fermi energy:  1.567368; 60.000000 electrons
         Band energy:-138.695961;  BLOECHL correction: -0.063137
       DOS:  cpu time    0.0040: real time    0.0041
    CHARGE:  cpu time    0.0120: real time    0.0117
    MIXING:  cpu time    0.0010: real time    0.0005
    --------------------------------------------
      LOOP:  cpu time    0.3060: real time    0.3059

 eigenvalue-minimisations  :  1358
 total energy-change (2. order) : 0.3878192E+00  (-0.7644764E-01)
 number of electron      59.9999446 magnetization 
 augmentation part       31.5741069 magnetization 

 DIPCOR: dipole corrections for dipol
 direction  3 min pos   143,
 dipolmoment           0.000000      0.000000      0.150207 electrons x Angstroem
 Tr[quadrupol]       -58.306799

 energy correction for charged system         0.000000 eV
 dipol+quadrupol energy correction           -0.020626 eV
 added-field ion interaction          2.238901 eV  (added to PSCEN)


 Broyden mixing:
  rms(total) = 0.19198E+01    rms(broyden)= 0.19196E+01
  rms(prec ) = 0.30419E+01
  weight for this iteration     100.00

 eigenvalues of (default mixing * dielectric matrix)
  average eigenvalue GAMMA=   0.2780
  0.8883  0.2856  0.2856  0.0609  0.0609  0.0866

 Free energy of the ion-electron system (eV)
  ---------------------------------------------------
  alpha Z        PSCENC =       334.20124427
  Ewald energy   TEWEN  =      4482.84834414
  -Hartree energ DENC   =    -10546.82126215
  -exchange      EXHF   =         0.00000000
  -V(xc)+E(xc)   XCENC  =       194.33383648
  PAW double counting   =      4787.16172215    -5126.56760847
  entropy T*S    EENTRO =         0.00000000
  eigenvalues    EBANDS =      -138.69596140
  atomic energy  EATOM  =      5968.85262168
  Solvation  Ediel_sol  =         0.00000000
  ---------------------------------------------------
  free energy    TOTEN  =       -44.68706329 eV

  energy without entropy =      -44.68706329  energy(sigma->0) =      -44.68706329


--------------------------------------------------------------------------------------------------------




--------------------------------------- Iteration      1(  12)  ---------------------------------------


    POTLOK:  cpu time    0.0070: real time    0.0079
    SETDIJ:  cpu time    0.0030: real time    0.0028
    EDDIAG:  cpu time    0.0740: real time    0.0739
  RMM-DIIS:  cpu time    0.1940: real time    0.1944
    ORTHCH:  cpu time    0.0110: real time    0.0106
 BZINTS: Fermi energy:  1.202401; 60.000000 electrons
         Band energy:-145.968979;  BLOECHL correction: -0.066784
       DOS:  cpu time    0.0040: real time    0.0041
    CHARGE:  cpu time    0.0120: real time    0.0120
    MIXING:  cpu time    0.0010: real time    0.0005
    --------------------------------------------
      LOOP:  cpu time    0.3060: real time    0.3061

 eigenvalue-minimisations  :  1335
 total energy-change (2. order) : 0.6844089E+00  (-0.2305764E-01)
 number of electron      59.9999454 magnetization 
 augmentation part       31.6579432 magnetization 

 DIPCOR: dipole corrections for dipol
 direction  3 min pos   144,
 dipolmoment           0.000000      0.000000      0.183763 electrons x Angstroem
 Tr[quadrupol]       -58.006619

 energy correction for charged system         0.000000 eV
 dipol+quadrupol energy correction           -0.030871 eV
 added-field ion interaction          4.793308 eV  (added to PSCEN)


 Broyden mixing:
  rms(total) = 0.13949E+01    rms(broyden)= 0.13948E+01
  rms(prec ) = 0.23974E+01
  weight for this iteration     100.00

 eigenvalues of (default mixing * dielectric matrix)
  average eigenvalue GAMMA=   0.3121
  0.9768  0.3874  0.3874  0.2206  0.0615  0.0615  0.0896

 Free energy of the ion-electron system (eV)
  ---------------------------------------------------
  alpha Z        PSCENC =       336.74540673
  Ewald energy   TEWEN  =      4482.84834414
  -Hartree energ DENC   =    -10539.57826362
  -exchange      EXHF   =         0.00000000
  -V(xc)+E(xc)   XCENC  =       194.27194728
  PAW double counting   =      4808.38357763    -5149.55730888
  entropy T*S    EENTRO =         0.00000000
  eigenvalues    EBANDS =      -145.96897941
  atomic energy  EATOM  =      5968.85262168
  Solvation  Ediel_sol  =         0.00000000
  ---------------------------------------------------
  free energy    TOTEN  =       -44.00265444 eV

  energy without entropy =      -44.00265444  energy(sigma->0) =      -44.00265444


--------------------------------------------------------------------------------------------------------




--------------------------------------- Iteration      1(  13)  ---------------------------------------


    POTLOK:  cpu time    0.0080: real time    0.0079
    SETDIJ:  cpu time    0.0020: real time    0.0028
    EDDIAG:  cpu time    0.0740: real time    0.0740
  RMM-DIIS:  cpu time    0.1950: real time    0.1944
    ORTHCH:  cpu time    0.0100: real time    0.0105
 BZINTS: Fermi energy:  0.938116; 60.000000 electrons
         Band energy:-155.172146;  BLOECHL correction: -0.064020
       DOS:  cpu time    0.0040: real time    0.0039
    CHARGE:  cpu time    0.0120: real time    0.0116
    MIXING:  cpu time    0.0000: real time    0.0005
    --------------------------------------------
      LOOP:  cpu time    0.3050: real time    0.3056

 eigenvalue-minimisations  :  1316
 total energy-change (2. order) : 0.5089170E+00  (-0.4144596E-02)
 number of electron      59.9999446 magnetization 
 augmentation part       31.7759521 magnetization 

 DIPCOR: dipole corrections for dipol
 direction  3 min pos   145,
 dipolmoment           0.000000      0.000000      0.196658 electrons x Angstroem
 Tr[quadrupol]       -57.715612

 energy correction for charged system         0.000000 eV
 dipol+quadrupol energy correction           -0.035355 eV
 added-field ion interaction          7.328049 eV  (added to PSCEN)


 Broyden mixing:
  rms(total) = 0.13570E+01    rms(broyden)= 0.13570E+01
  rms(prec ) = 0.21987E+01
  weight for this iteration     100.00

 eigenvalues of (default mixing * dielectric matrix)
  average eigenvalue GAMMA=   0.4042
  0.9493  0.7289  0.7289  0.3701  0.2443  0.0614  0.0614  0.0895

 Free energy of the ion-electron system (eV)
  ---------------------------------------------------
  alpha Z        PSCENC =       339.27566313
  Ewald energy   TEWEN  =      4482.84834414
  -Hartree energ DENC   =    -10531.18383736
  -exchange      EXHF   =         0.00000000
  -V(xc)+E(xc)   XCENC  =       194.18525813
  PAW double counting   =      4825.14834550    -5167.44798698
  entropy T*S    EENTRO =         0.00000000
  eigenvalues    EBANDS =      -155.17214567
  atomic energy  EATOM  =      5968.85262168
  Solvation  Ediel_sol  =         0.00000000
  ---------------------------------------------------
  free energy    TOTEN  =       -43.49373742 eV

  energy without entropy =      -43.49373742  energy(sigma->0) =      -43.49373742


--------------------------------------------------------------------------------------------------------




--------------------------------------- Iteration      1(  14)  ---------------------------------------


    POTLOK:  cpu time    0.0080: real time    0.0080
    SETDIJ:  cpu time    0.0030: real time    0.0028
    EDDIAG:  cpu time    0.0740: real time    0.0741
  RMM-DIIS:  cpu time    0.1940: real time    0.1943
    ORTHCH:  cpu time    0.0110: real time    0.0105
 BZINTS: Fermi energy:  0.597001; 60.000000 electrons
         Band energy:-161.754648;  BLOECHL correction: -0.107535
       DOS:  cpu time    0.0040: real time    0.0041
    CHARGE:  cpu time    0.0120: real time    0.0122
    MIXING:  cpu time    0.0010: real time    0.0006
    --------------------------------------------
      LOOP:  cpu time    0.3070: real time    0.3067

 eigenvalue-minimisations  :  1305
 total energy-change (2. order) : 0.7219331E+00  (-0.1030869E-01)
 number of electron      59.9999451 magnetization 
 augmentation part       31.8552474 magnetization 

 DIPCOR: dipole corrections for dipol
 direction  3 min pos   146,
 dipolmoment           0.000000      0.000000      0.231498 electrons x Angstroem
 Tr[quadrupol]       -57.400100

 energy correction for charged system         0.000000 eV
 dipol+quadrupol energy correction           -0.048992 eV
 added-field ion interaction         11.214171 eV  (added to PSCEN)


 Broyden mixing:
  rms(total) = 0.90569E+00    rms(broyden)= 0.90563E+00
  rms(prec ) = 0.16470E+01
  weight for this iteration     100.00

 eigenvalues of (default mixing * dielectric matrix)
  average eigenvalue GAMMA=   0.5466
  1.4189  1.4189  0.6388  0.6388  0.3526  0.2392  0.0614  0.0614  0.0895

 Free energy of the ion-electron system (eV)
  ---------------------------------------------------
  alpha Z        PSCENC =       343.14814884
  Ewald energy   TEWEN  =      4482.84834414
  -Hartree energ DENC   =    -10525.51400722
  -exchange      EXHF   =         0.00000000
  -V(xc)+E(xc)   XCENC  =       194.26352281
  PAW double counting   =      4865.69657212    -5210.31235916
  entropy T*S    EENTRO =         0.00000000
  eigenvalues    EBANDS =      -161.75464758
  atomic energy  EATOM  =      5968.85262168
  Solvation  Ediel_sol  =         0.00000000
  ---------------------------------------------------
  free energy    TOTEN  =       -42.77180437 eV

  energy without entropy =      -42.77180437  energy(sigma->0) =      -42.77180437


--------------------------------------------------------------------------------------------------------




--------------------------------------- Iteration      1(  15)  ---------------------------------------


    POTLOK:  cpu time    0.0080: real time    0.0081
    SETDIJ:  cpu time    0.0030: real time    0.0028
    EDDIAG:  cpu time    0.0740: real time    0.0738
  RMM-DIIS:  cpu time    0.1940: real time    0.1945
    ORTHCH:  cpu time    0.0100: real time    0.0104
 BZINTS: Fermi energy:  0.520978; 60.000000 electrons
         Band energy:-160.250541;  BLOECHL correction: -0.086489
       DOS:  cpu time    0.0040: real time    0.0040
    CHARGE:  cpu time    0.0130: real time    0.0122
    MIXING:  cpu time    0.0000: real time    0.0006
    --------------------------------------------
      LOOP:  cpu time    0.3060: real time    0.3063

 eigenvalue-minimisations  :  1340
 total energy-change (2. order) : 0.8689233E+00  (-0.1253374E-01)
 number of electron      59.9999447 magnetization 
 augmentation part       31.7734567 magnetization 

 DIPCOR: dipole corrections for dipol
 direction  3 min pos   146,
 dipolmoment           0.000000      0.000000      0.229717 electrons x Angstroem
 Tr[quadrupol]       -57.155469

 energy correction for charged system         0.000000 eV
 dipol+quadrupol energy correction           -0.048241 eV
 added-field ion interaction         11.127918 eV  (added to PSCEN)


 Broyden mixing:
  rms(total) = 0.69042E+00    rms(broyden)= 0.69029E+00
  rms(prec ) = 0.88178E+00
  weight for this iteration     100.00

 eigenvalues of (default mixing * dielectric matrix)
  average eigenvalue GAMMA=   0.5494
  1.5474  1.5474  0.5566  0.5566  0.5215  0.3148  0.2371  0.0614  0.0614  0.0895

 Free energy of the ion-electron system (eV)
  ---------------------------------------------------
  alpha Z        PSCENC =       343.06264577
  Ewald energy   TEWEN  =      4482.84834414
  -Hartree energ DENC   =    -10524.71400612
  -exchange      EXHF   =         0.00000000
  -V(xc)+E(xc)   XCENC  =       194.48709306
  PAW double counting   =      4910.44599649    -5256.63503537
  entropy T*S    EENTRO =         0.00000000
  eigenvalues    EBANDS =      -160.25054068
  atomic energy  EATOM  =      5968.85262168
  Solvation  Ediel_sol  =         0.00000000
  ---------------------------------------------------
  free energy    TOTEN  =       -41.90288102 eV

  energy without entropy =      -41.90288102  energy(sigma->0) =      -41.90288102


--------------------------------------------------------------------------------------------------------




--------------------------------------- Iteration      1(  16)  ---------------------------------------


    POTLOK:  cpu time    0.0080: real time    0.0080
    SETDIJ:  cpu time    0.0030: real time    0.0028
    EDDIAG:  cpu time    0.0740: real time    0.0741
  RMM-DIIS:  cpu time    0.2020: real time    0.2022
    ORTHCH:  cpu time    0.0110: real time    0.0106
 BZINTS: Fermi energy:  0.684356; 60.000000 electrons
         Band energy:-155.103721;  BLOECHL correction: -0.082029
       DOS:  cpu time    0.0040: real time    0.0043
    CHARGE:  cpu time    0.0120: real time    0.0116
    MIXING:  cpu time    0.0010: real time    0.0009
    --------------------------------------------
      LOOP:  cpu time    0.3150: real time    0.3146

 eigenvalue-minimisations  :  1315
 total energy-change (2. order) : 0.2502461E+00  (-0.1814544E-02)
 number of electron      59.9999446 magnetization 
 augmentation part       31.7206035 magnetization 

 DIPCOR: dipole corrections for dipol
 direction  3 min pos   146,
 dipolmoment           0.000000      0.000000      0.202576 electrons x Angstroem
 Tr[quadrupol]       -57.269185

 energy correction for charged system         0.000000 eV
 dipol+quadrupol energy correction           -0.037515 eV
 added-field ion interaction          9.813139 eV  (added to PSCEN)


 Broyden mixing:
  rms(total) = 0.47959E+00    rms(broyden)= 0.47951E+00
  rms(prec ) = 0.66738E+00
  weight for this iteration     100.00

 eigenvalues of (default mixing * dielectric matrix)
  average eigenvalue GAMMA=   0.5403
  1.5983  1.5983  0.6959  0.5312  0.5312  0.3392  0.2384  0.0614  0.0614  0.0895
  0.1988

 Free energy of the ion-electron system (eV)
  ---------------------------------------------------
  alpha Z        PSCENC =       341.75859283
  Ewald energy   TEWEN  =      4482.84834414
  -Hartree energ DENC   =    -10528.46801250
  -exchange      EXHF   =         0.00000000
  -V(xc)+E(xc)   XCENC  =       194.56111745
  PAW double counting   =      4918.05070048    -5264.15227791
  entropy T*S    EENTRO =         0.00000000
  eigenvalues    EBANDS =      -155.10372109
  atomic energy  EATOM  =      5968.85262168
  Solvation  Ediel_sol  =         0.00000000
  ---------------------------------------------------
  free energy    TOTEN  =       -41.65263492 eV

  energy without entropy =      -41.65263492  energy(sigma->0) =      -41.65263492


--------------------------------------------------------------------------------------------------------




--------------------------------------- Iteration      1(  17)  ---------------------------------------


    POTLOK:  cpu time    0.0080: real time    0.0080
    SETDIJ:  cpu time    0.0030: real time    0.0028
    EDDIAG:  cpu time    0.0730: real time    0.0736
  RMM-DIIS:  cpu time    0.2000: real time    0.1995
    ORTHCH:  cpu time    0.0100: real time    0.0105
 BZINTS: Fermi energy:  0.619772; 60.000000 electrons
         Band energy:-159.988955;  BLOECHL correction: -0.053896
       DOS:  cpu time    0.0040: real time    0.0040
    CHARGE:  cpu time    0.0110: real time    0.0105
    MIXING:  cpu time    0.0010: real time    0.0009
    --------------------------------------------
      LOOP:  cpu time    0.3100: real time    0.3098

 eigenvalue-minimisations  :  1324
 total energy-change (2. order) :-0.1954680E+00  (-0.1200764E-02)
 number of electron      59.9999439 magnetization 
 augmentation part       31.7286333 magnetization 

 DIPCOR: dipole corrections for dipol
 direction  3 min pos   146,
 dipolmoment           0.000000      0.000000      0.222390 electrons x Angstroem
 Tr[quadrupol]       -57.067876

 energy correction for charged system         0.000000 eV
 dipol+quadrupol energy correction           -0.045213 eV
 added-field ion interaction         10.772987 eV  (added to PSCEN)


 Broyden mixing:
  rms(total) = 0.90074E+00    rms(broyden)= 0.90069E+00
  rms(prec ) = 0.13217E+01
  weight for this iteration     100.00

 eigenvalues of (default mixing * dielectric matrix)
  average eigenvalue GAMMA=   0.5387
  1.5817  1.5817  0.8550  0.4530  0.5410  0.5410  0.3244  0.2373  0.0614  0.0614
  0.0895  0.1372

 Free energy of the ion-electron system (eV)
  ---------------------------------------------------
  alpha Z        PSCENC =       342.71074301
  Ewald energy   TEWEN  =      4482.84834414
  -Hartree energ DENC   =    -10524.51041698
  -exchange      EXHF   =         0.00000000
  -V(xc)+E(xc)   XCENC  =       194.54418891
  PAW double counting   =      4921.71901589    -5268.02364432
  entropy T*S    EENTRO =         0.00000000
  eigenvalues    EBANDS =      -159.98895530
  atomic energy  EATOM  =      5968.85262168
  Solvation  Ediel_sol  =         0.00000000
  ---------------------------------------------------
  free energy    TOTEN  =       -41.84810297 eV

  energy without entropy =      -41.84810297  energy(sigma->0) =      -41.84810297


--------------------------------------------------------------------------------------------------------




--------------------------------------- Iteration      1(  18)  ---------------------------------------


    POTLOK:  cpu time    0.0080: real time    0.0079
    SETDIJ:  cpu time    0.0020: real time    0.0028
    EDDIAG:  cpu time    0.0740: real time    0.0738
  RMM-DIIS:  cpu time    0.2000: real time    0.1996
    ORTHCH:  cpu time    0.0100: real time    0.0106
 BZINTS: Fermi energy:  0.582936; 60.000000 electrons
         Band energy:-161.496583;  BLOECHL correction: -0.083227
       DOS:  cpu time    0.0050: real time    0.0043
    CHARGE:  cpu time    0.0110: real time    0.0119
    MIXING:  cpu time    0.0010: real time    0.0008
    --------------------------------------------
      LOOP:  cpu time    0.3110: real time    0.3116

 eigenvalue-minimisations  :  1306
 total energy-change (2. order) : 0.1800779E-01  (-0.1374436E-02)
 number of electron      59.9999444 magnetization 
 augmentation part       31.7592082 magnetization 

 DIPCOR: dipole corrections for dipol
 direction  3 min pos   146,
 dipolmoment           0.000000      0.000000      0.223155 electrons x Angstroem
 Tr[quadrupol]       -57.036714

 energy correction for charged system         0.000000 eV
 dipol+quadrupol energy correction           -0.045524 eV
 added-field ion interaction         10.810031 eV  (added to PSCEN)


 Broyden mixing:
  rms(total) = 0.67111E+00    rms(broyden)= 0.67107E+00
  rms(prec ) = 0.10158E+01
  weight for this iteration     100.00

 eigenvalues of (default mixing * dielectric matrix)
  average eigenvalue GAMMA=   0.5266
  1.4864  1.4864  0.9419  0.4860  0.4860  0.5314  0.5314  0.3258  0.2380  0.0614
  0.0614  0.0895  0.1200

 Free energy of the ion-electron system (eV)
  ---------------------------------------------------
  alpha Z        PSCENC =       342.74747644
  Ewald energy   TEWEN  =      4482.84834414
  -Hartree energ DENC   =    -10523.15429866
  -exchange      EXHF   =         0.00000000
  -V(xc)+E(xc)   XCENC  =       194.49601396
  PAW double counting   =      4917.54518942    -5263.66885878
  entropy T*S    EENTRO =         0.00000000
  eigenvalues    EBANDS =      -161.49658339
  atomic energy  EATOM  =      5968.85262168
  Solvation  Ediel_sol  =         0.00000000
  ---------------------------------------------------
  free energy    TOTEN  =       -41.83009518 eV

  energy without entropy =      -41.83009518  energy(sigma->0) =      -41.83009518


--------------------------------------------------------------------------------------------------------




--------------------------------------- Iteration      1(  19)  ---------------------------------------


    POTLOK:  cpu time    0.0080: real time    0.0080
    SETDIJ:  cpu time    0.0030: real time    0.0028
    EDDIAG:  cpu time    0.0740: real time    0.0741
  RMM-DIIS:  cpu time    0.1970: real time    0.1968
    ORTHCH:  cpu time    0.0100: real time    0.0104
 BZINTS: Fermi energy:  0.719425; 60.000000 electrons
         Band energy:-152.704616;  BLOECHL correction: -0.088773
       DOS:  cpu time    0.0050: real time    0.0043
    CHARGE:  cpu time    0.0110: real time    0.0116
    MIXING:  cpu time    0.0010: real time    0.0009
    --------------------------------------------
      LOOP:  cpu time    0.3090: real time    0.3088

 eigenvalue-minimisations  :  1278
 total energy-change (2. order) : 0.1615903E+00  (-0.6378655E-03)
 number of electron      59.9999447 magnetization 
 augmentation part       31.7384133 magnetization 

 DIPCOR: dipole corrections for dipol
 direction  3 min pos   145,
 dipolmoment           0.000000      0.000000      0.207544 electrons x Angstroem
 Tr[quadrupol]       -57.256659

 energy correction for charged system         0.000000 eV
 dipol+quadrupol energy correction           -0.039378 eV
 added-field ion interaction          7.733723 eV  (added to PSCEN)


 Broyden mixing:
  rms(total) = 0.49325E+00    rms(broyden)= 0.49324E+00
  rms(prec ) = 0.70933E+00
  weight for this iteration     100.00

 eigenvalues of (default mixing * dielectric matrix)
  average eigenvalue GAMMA=   0.6151
  1.1738  1.1738  1.4538  1.1571  1.1571  0.5451  0.5451  0.5106  0.3315  0.2385
  0.0614  0.0614  0.0895  0.1129

 Free energy of the ion-electron system (eV)
  ---------------------------------------------------
  alpha Z        PSCENC =       339.67731436
  Ewald energy   TEWEN  =      4482.84834414
  -Hartree energ DENC   =    -10528.81503867
  -exchange      EXHF   =         0.00000000
  -V(xc)+E(xc)   XCENC  =       194.55214436
  PAW double counting   =      4924.28796661    -5270.36724090
  entropy T*S    EENTRO =         0.00000000
  eigenvalues    EBANDS =      -152.70461646
  atomic energy  EATOM  =      5968.85262168
  Solvation  Ediel_sol  =         0.00000000
  ---------------------------------------------------
  free energy    TOTEN  =       -41.66850487 eV

  energy without entropy =      -41.66850487  energy(sigma->0) =      -41.66850487


--------------------------------------------------------------------------------------------------------




--------------------------------------- Iteration      1(  20)  ---------------------------------------


    POTLOK:  cpu time    0.0080: real time    0.0080
    SETDIJ:  cpu time    0.0030: real time    0.0028
    EDDIAG:  cpu time    0.0740: real time    0.0738
  RMM-DIIS:  cpu time    0.2020: real time    0.2021
    ORTHCH:  cpu time    0.0100: real time    0.0105
 BZINTS: Fermi energy:  1.296004; 60.000000 electrons
         Band energy:-129.529698;  BLOECHL correction: -0.085049
       DOS:  cpu time    0.0050: real time    0.0043
    CHARGE:  cpu time    0.0110: real time    0.0111
    MIXING:  cpu time    0.0010: real time    0.0009
    --------------------------------------------
      LOOP:  cpu time    0.3140: real time    0.3135

 eigenvalue-minimisations  :  1315
 total energy-change (2. order) : 0.3009543E+00  (-0.1118714E-01)
 number of electron      59.9999446 magnetization 
 augmentation part       31.5960171 magnetization 

 DIPCOR: dipole corrections for dipol
 direction  3 min pos   145,
 dipolmoment           0.000000      0.000000      0.113728 electrons x Angstroem
 Tr[quadrupol]       -58.180536

 energy correction for charged system         0.000000 eV
 dipol+quadrupol energy correction           -0.011824 eV
 added-field ion interaction          4.237839 eV  (added to PSCEN)


 Broyden mixing:
  rms(total) = 0.35507E+00    rms(broyden)= 0.35497E+00
  rms(prec ) = 0.54909E+00
  weight for this iteration     100.00

 eigenvalues of (default mixing * dielectric matrix)
  average eigenvalue GAMMA=   0.6112
  1.5254  1.2260  1.2260  1.1576  1.1576  0.5152  0.5152  0.4774  0.4774  0.3266
  0.2384  0.0614  0.0614  0.0895  0.1131

 Free energy of the ion-electron system (eV)
  ---------------------------------------------------
  alpha Z        PSCENC =       336.20898382
  Ewald energy   TEWEN  =      4482.84834414
  -Hartree energ DENC   =    -10549.05931398
  -exchange      EXHF   =         0.00000000
  -V(xc)+E(xc)   XCENC  =       194.78159198
  PAW double counting   =      4943.55304772    -5289.02312747
  entropy T*S    EENTRO =         0.00000000
  eigenvalues    EBANDS =      -129.52969850
  atomic energy  EATOM  =      5968.85262168
  Solvation  Ediel_sol  =         0.00000000
  ---------------------------------------------------
  free energy    TOTEN  =       -41.36755061 eV

  energy without entropy =      -41.36755061  energy(sigma->0) =      -41.36755061


--------------------------------------------------------------------------------------------------------




--------------------------------------- Iteration      1(  21)  ---------------------------------------


    POTLOK:  cpu time    0.0080: real time    0.0082
    SETDIJ:  cpu time    0.0030: real time    0.0028
    EDDIAG:  cpu time    0.0740: real time    0.0740
  RMM-DIIS:  cpu time    0.1610: real time    0.1611
    ORTHCH:  cpu time    0.0100: real time    0.0106
 BZINTS: Fermi energy:  1.353082; 60.000000 electrons
         Band energy:-126.361434;  BLOECHL correction: -0.090434
       DOS:  cpu time    0.0040: real time    0.0040
    CHARGE:  cpu time    0.0120: real time    0.0117
    MIXING:  cpu time    0.0010: real time    0.0009
    --------------------------------------------
      LOOP:  cpu time    0.2730: real time    0.2733

 eigenvalue-minimisations  :  1363
 total energy-change (2. order) : 0.1734830E-01  (-0.8306054E-03)
 number of electron      59.9999450 magnetization 
 augmentation part       31.5889222 magnetization 

 DIPCOR: dipole corrections for dipol
 direction  3 min pos   145,
 dipolmoment           0.000000      0.000000      0.104024 electrons x Angstroem
 Tr[quadrupol]       -58.323622

 energy correction for charged system         0.000000 eV
 dipol+quadrupol energy correction           -0.009892 eV
 added-field ion interaction          3.876243 eV  (added to PSCEN)


 Broyden mixing:
  rms(total) = 0.32138E+00    rms(broyden)= 0.32134E+00
  rms(prec ) = 0.50728E+00
  weight for this iteration     100.00

 eigenvalues of (default mixing * dielectric matrix)
  average eigenvalue GAMMA=   0.6638
  1.7801  1.4921  1.4921  0.8961  0.8961  0.8308  0.8308  0.5404  0.5404  0.4283
  0.3300  0.2385  0.0614  0.0614  0.0895  0.1130

 Free energy of the ion-electron system (eV)
  ---------------------------------------------------
  alpha Z        PSCENC =       335.84932039
  Ewald energy   TEWEN  =      4482.84834414
  -Hartree energ DENC   =    -10551.93034723
  -exchange      EXHF   =         0.00000000
  -V(xc)+E(xc)   XCENC  =       194.81350655
  PAW double counting   =      4947.86433046    -5293.28654414
  entropy T*S    EENTRO =         0.00000000
  eigenvalues    EBANDS =      -126.36143417
  atomic energy  EATOM  =      5968.85262168
  Solvation  Ediel_sol  =         0.00000000
  ---------------------------------------------------
  free energy    TOTEN  =       -41.35020231 eV

  energy without entropy =      -41.35020231  energy(sigma->0) =      -41.35020231


--------------------------------------------------------------------------------------------------------




--------------------------------------- Iteration      1(  22)  ---------------------------------------


    POTLOK:  cpu time    0.0080: real time    0.0081
[...]
     14      -0.7169      2.00000
     15      -0.4340      2.00000
     16      -0.3522      2.00000
     17      -0.1897      2.00000
     18      -0.1306      2.00000
     19       0.0518      2.00000
     20       0.2872      2.00000
     21       0.4201      2.00000
     22       0.6701      2.00000
     23       0.7965      2.00000
     24       1.1330      2.00000
     25       1.2523      2.00000
     26       1.3653      2.00000
     27       1.4849      2.00000
     28       1.5987      2.01541
     29       1.7127      1.24885
     30       1.7741      0.51669
     31       2.2279     -0.11676
     32       2.5022     -0.13992
     33       2.9962      0.00000
     34       3.7309      0.00000
     35       5.2952      0.00000
     36       6.0439      0.00000
     37       7.3144      0.00000
     38       8.9741      0.00000
     39       9.6154      0.00000
     40      10.7347      0.00000
     41      11.8670      0.00000
     42      12.3093      0.00000
     43      13.1514      0.00000
     44      13.6128      0.00000
     45      14.8287      0.00000
     46      15.0858      0.00000
     47      15.5576      0.00000
     48      15.7431      0.00000

 k-point     9 :       0.4444    0.1111    0.0000
  band No.  band energies     occupation 
      1     -21.5902      2.00000
      2      -7.4436      2.00000
      3      -6.7571      2.00000
      4      -4.4960      2.00000
      5      -3.6159      2.00000
      6      -2.3549      2.00000
      7      -2.1950      2.00000
      8      -2.0348      2.00000
      9      -1.8438      2.00000
     10      -1.6380      2.00000
     11      -1.5924      2.00000
     12      -1.5411      2.00000
     13      -1.2164      2.00000
     14      -0.7079      2.00000
     15      -0.4332      2.00000
     16      -0.2773      2.00000
     17      -0.1397      2.00000
     18       0.0592      2.00000
     19       0.2133      2.00000
     20       0.2417      2.00000
     21       0.7299      2.00000
     22       0.7637      2.00000
     23       1.1005      2.00000
     24       1.2662      2.00000
     25       1.5182      2.00000
     26       1.5598      2.00000
     27       1.6520      2.00000
     28       1.6671      2.12700
     29       1.7798     -0.05940
     30       1.9802      0.00000
     31       2.0801      0.00000
     32       3.5916      0.00000
     33       4.3328      0.00000
     34       4.8823      0.00000
     35       5.2424      0.00000
     36       5.7731      0.00000
     37       5.9338      0.00000
     38       8.1523      0.00000
     39       8.9156      0.00000
     40       9.9297      0.00000
     41      11.7516      0.00000
     42      12.0194      0.00000
     43      13.5441      0.00000
     44      13.9540      0.00000
     45      14.5390      0.00000
     46      14.7301      0.00000
     47      15.0237      0.00000
     48      15.8362      0.00000

 k-point    10 :       0.2222    0.2222    0.0000
  band No.  band energies     occupation 
      1     -21.8024      2.00000
      2      -7.7464      2.00000
      3      -6.3680      2.00000
      4      -4.3239      2.00000
      5      -4.0660      2.00000
      6      -2.6645      2.00000
      7      -2.2950      2.00000
      8      -1.8842      2.00000
      9      -1.6082      2.00000
     10      -1.3182      2.00000
     11      -1.2164      2.00000
     12      -1.0902      2.00000
     13      -0.9936      2.00000
     14      -0.8871      2.00000
     15      -0.7153      2.00000
     16      -0.5359      2.00000
     17      -0.4381      2.00000
     18      -0.3161      2.00000
     19      -0.2720      2.00000
     20      -0.0997      2.00000
     21       0.2931      2.00000
     22       0.4749      2.00000
     23       0.6429      2.00000
     24       0.9091      2.00000
     25       0.9775      2.00000
     26       1.1592      2.00000
     27       1.4923      2.00000
     28       1.6311      2.00000
     29       1.7067      1.63757
     30       1.7825      0.49041
     31       2.4203     -0.14496
     32       2.6113     -0.15219
     33       3.3330      0.00000
     34       3.9607      0.00000
     35       5.2675      0.00000
     36       5.3966      0.00000
     37       7.5852      0.00000
     38       9.8452      0.00000
     39      11.1715      0.00000
     40      11.6808      0.00000
     41      12.0109      0.00000
     42      12.5681      0.00000
     43      13.0411      0.00000
     44      13.3428      0.00000
     45      14.0708      0.00000
     46      14.4142      0.00000
     47      14.8896      0.00000
     48      15.7197      0.00000

 k-point    11 :       0.3333    0.2222    0.0000
  band No.  band energies     occupation 
      1     -21.5372      2.00000
      2      -7.0581      2.00000
      3      -6.5018      2.00000
      4      -4.8996      2.00000
      5      -4.1648      2.00000
      6      -1.9905      2.00000
      7      -1.8052      2.00000
      8      -1.6990      2.00000
      9      -1.4761      2.00000
     10      -1.4327      2.00000
     11      -1.2415      2.00000
     12      -1.1491      2.00000
     13      -0.9763      2.00000
     14      -0.8493      2.00000
     15      -0.7969      2.00000
     16      -0.5830      2.00000
     17      -0.5489      2.00000
     18      -0.3046      2.00000
     19      -0.0665      2.00000
     20       0.1942      2.00000
     21       0.3282      2.00000
     22       0.4567      2.00000
     23       0.7218      2.00000
     24       0.9862      2.00000
     25       1.1673      2.00000
     26       1.3234      2.00000
     27       1.5609      2.00000
     28       1.6538      2.00000
     29       1.7650      0.04470
     30       1.9464      0.00000
     31       2.6427      0.00000
     32       4.2156      0.00000
     33       4.4875      0.00000
     34       4.7878      0.00000
     35       5.7616      0.00000
     36       7.0191      0.00000
     37       7.6510      0.00000
     38       8.7511      0.00000
     39       9.6890      0.00000
     40      10.4671      0.00000
     41      10.8723      0.00000
     42      11.6940      0.00000
     43      12.1577      0.00000
     44      12.9570      0.00000
     45      13.7221      0.00000
     46      14.0889      0.00000
     47      14.6567      0.00000
     48      15.3072      0.00000

 k-point    12 :       0.3333    0.3333    0.0000
  band No.  band energies     occupation 
      1     -21.4449      2.00000
      2      -6.4037      2.00000
      3      -6.0983      2.00000
      4      -6.0970      2.00000
      5      -4.1452      2.00000
      6      -1.5884      2.00000
      7      -1.5136      2.00000
      8      -1.3501      2.00000
      9      -1.3124      2.00000
     10      -1.2756      2.00000
     11      -1.2584      2.00000
     12      -1.1715      2.00000
     13      -1.0323      2.00000
     14      -0.9175      2.00000
     15      -0.8887      2.00000
     16      -0.6494      2.00000
     17      -0.5351      2.00000
     18      -0.4387      2.00000
     19      -0.3265      2.00000
     20       0.0655      2.00000
     21       0.1858      2.00000
     22       0.5953      2.00000
     23       0.8219      2.00000
     24       0.8562      2.00000
     25       1.0146      2.00000
     26       1.4476      2.00000
     27       1.5597      2.00000
     28       1.5695      2.00000
     29       1.6013      2.39299
     30       1.9777      0.00000
     31       3.2003      0.00000
     32       3.2324      0.00000
     33       6.7790      0.00000
     34       6.8604      0.00000
     35       7.0907      0.00000
     36       7.3358      0.00000
     37       7.8362      0.00000
     38       8.2808      0.00000
     39       8.9201      0.00000
     40       9.0450      0.00000
     41       9.6281      0.00000
     42      10.3839      0.00000
     43      11.3330      0.00000
     44      12.8534      0.00000
     45      13.6284      0.00000
     46      13.9869      0.00000
     47      14.2941      0.00000
     48      15.6177      0.00000


--------------------------------------------------------------------------------------------------------


 soft charge-density along one line, spin component           1
         0         1         2         3         4         5         6         7         8         9
 total charge-density along one line
 
 pseudopotential strength for first ion, spin component:           1
 -7.007   0.000  -0.000   0.012   0.000  -0.053  -0.000   0.000
  0.000  -6.842   0.000   0.000   0.012  -0.000  -0.122  -0.000
 -0.000   0.000  -6.818  -0.000   0.000   0.000  -0.000  -0.133
  0.012   0.000  -0.000  -6.842  -0.000  -0.005  -0.000   0.000
  0.000   0.012   0.000  -0.000  -7.007  -0.000  -0.005  -0.000
 -0.053  -0.000   0.000  -0.005  -0.000   1.327   0.000  -0.000
 -0.000  -0.122  -0.000  -0.000  -0.005   0.000   1.356   0.000
  0.000  -0.000  -0.133   0.000  -0.000  -0.000   0.000   1.360
 -0.005  -0.000   0.000  -0.122   0.000   0.002   0.000  -0.000
 -0.000  -0.005  -0.000   0.000  -0.053   0.000   0.002   0.000
 -0.000   0.000  -0.025   0.000   0.000  -0.000   0.000   0.009
  0.000  -0.000   0.002  -0.000  -0.000  -0.000   0.000  -0.001
  0.000  -0.009  -0.000   0.000  -0.000  -0.000   0.005   0.000
  0.000   0.000  -0.006   0.000  -0.000   0.000  -0.000   0.003
 -0.000   0.000  -0.000  -0.009   0.000   0.000   0.000   0.000
 -0.000   0.007   0.000  -0.000   0.000   0.000  -0.003  -0.000
 -0.000  -0.000   0.006  -0.000   0.000   0.000   0.000  -0.003
  0.000  -0.000   0.000   0.007  -0.000  -0.000   0.000  -0.000
 total augmentation occupancy for first ion, spin component:           1
  1.730   0.000  -0.000   0.025   0.000   0.078   0.000  -0.000  -0.020  -0.000   0.000  -0.000   0.000   0.000  -0.007   0.000
 -0.000   1.813  -0.000  -0.000   0.025   0.000   0.002   0.000   0.000  -0.021   0.000   0.000  -0.008   0.000  -0.000  -0.007
  0.000  -0.000   1.776   0.000  -0.000   0.000   0.000   0.035  -0.000  -0.000  -0.021   0.038   0.000   0.073   0.000  -0.000
  0.025  -0.000   0.000   1.813  -0.000  -0.021   0.000  -0.000   0.002   0.000   0.000   0.000  -0.000   0.000  -0.008   0.000
  0.000   0.025  -0.000  -0.000   1.730   0.000  -0.020  -0.000   0.000   0.078   0.000  -0.000  -0.007  -0.000   0.000   0.001
  0.078   0.000  -0.000  -0.021   0.000   0.074   0.000  -0.000   0.001   0.000   0.000   0.000   0.000   0.000  -0.007   0.000
  0.000   0.002   0.000   0.000  -0.020  -0.000   0.064  -0.000  -0.000   0.001   0.000  -0.000   0.039   0.000  -0.000  -0.004
 -0.000   0.000   0.035   0.000  -0.000  -0.000  -0.000   0.077  -0.000  -0.000  -0.097   0.019   0.000   0.048  -0.000  -0.000
 -0.020   0.000  -0.000   0.002   0.000   0.001  -0.000   0.000   0.064  -0.000   0.000   0.000   0.000  -0.000   0.039   0.000
  0.000  -0.021  -0.000   0.000   0.078  -0.000   0.001  -0.000   0.000   0.074   0.000  -0.000  -0.007  -0.000  -0.000   0.000
  0.000   0.000  -0.021   0.000   0.000   0.000   0.000  -0.097   0.000   0.000   1.251  -0.313  -0.000   0.089   0.000   0.000
  0.000   0.000   0.038   0.000  -0.000  -0.000  -0.000   0.019   0.000  -0.000  -0.313   0.102   0.000  -0.046   0.000   0.000
  0.000  -0.008   0.000  -0.000  -0.007  -0.000   0.039   0.000   0.000  -0.007   0.000   0.000   0.188   0.000  -0.000  -0.013
  0.000   0.000   0.073   0.000  -0.000   0.000  -0.000   0.048  -0.000  -0.000   0.089  -0.046   0.000   0.108  -0.000   0.000
 -0.007   0.000   0.000  -0.008  -0.000  -0.007   0.000   0.000   0.039   0.000   0.000   0.000   0.000  -0.000   0.188  -0.000
  0.000  -0.007  -0.000   0.000   0.001   0.000  -0.004  -0.000  -0.000   0.000   0.000   0.000  -0.013   0.000   0.000   0.001
  0.000  -0.000  -0.012  -0.000   0.000   0.000   0.000  -0.003   0.000   0.000  -0.015   0.006   0.000  -0.008   0.000   0.000
  0.001   0.000  -0.000  -0.007   0.000   0.000   0.000   0.000  -0.004   0.000   0.000  -0.000   0.000  -0.000  -0.013   0.000


------------------------ aborting loop because EDIFF is reached ----------------------------------------


 


 total charge     
 
# of ion       s       p       d       tot
------------------------------------------
    1        0.479   0.366   8.312   9.157
    2        0.485   0.478   8.333   9.296
    3        0.488   0.482   8.342   9.312
    4        0.494   0.488   8.335   9.317
    5        0.513   0.628   8.392   9.534
    6        0.978   1.610   0.000   2.588
    7        1.653   3.567   0.000   5.219
--------------------------------------------------
tot          5.089   7.620  41.714  54.423
 
    CHARGE:  cpu time    0.0140: real time    0.0141
    FORLOC:  cpu time    0.0000: real time    0.0007
    FORNL :  cpu time    0.0760: real time    0.0758
    STRESS:  cpu time    0.3270: real time    0.3270
    FORCOR:  cpu time    0.0070: real time    0.0070
    FORHAR:  cpu time    0.0020: real time    0.0019
    MIXING:  cpu time    0.0030: real time    0.0033
    OFIELD:  cpu time    0.0000: real time    0.0000

  FORCE on cell =-STRESS in cart. coord.  units (eV):
  Direction    XX          YY          ZZ          XY          YZ          ZX
  --------------------------------------------------------------------------------------
  Alpha Z   331.98297   331.98297   331.98297
  Ewald    7801.14231  7801.14240-11119.43645    -0.00000     0.00002     0.00000
  Hartree  9706.73362  9706.73363 -8831.35170    -0.00000     0.00001     0.00000
  E(xc)    -319.44953  -319.44931  -318.71619     0.00019     0.00003     0.00002
  Local  -18189.99920-18190.00186 19308.36456    -0.00226    -0.00024    -0.00013
  n-local  -188.99029  -188.75499  -195.30374    -7.26831    -0.21937     1.47856
  augment   267.58222   267.58471   263.03180     0.00217     0.00008     0.00007
  Kinetic   597.26577   590.19295   560.14565     9.60385     0.55127     0.98399
  Fock        0.00000     0.00000     0.00000     0.00000     0.00000     0.00000
  -------------------------------------------------------------------------------------
  Total       2.84919     2.84918    -1.28310     0.00000     0.00000     0.00000
  in kB      46.12375    46.12375   -20.77139     0.00000     0.00000     0.00000
  external pressure =       23.83 kB  Pullay stress =        0.00 kB


 VOLUME and BASIS-vectors are now :
 -----------------------------------------------------------------------------
  energy-cutoff  :      400.00
  volume of cell :       98.97
      direct lattice vectors                 reciprocal lattice vectors
     2.496086933  0.000000000  0.000000000     0.400627072  0.231302161  0.000000000
    -1.248043467  2.161674572  0.000000000     0.000000000  0.462604322  0.000000000
     0.000000000  0.000000000 18.342417972     0.000000000  0.000000000  0.054518439

  length of vectors
     2.496086933  2.496086827 18.342417972     0.462604302  0.462604322  0.054518439


 FORCES acting on ions
    electron-ion (+dipol)            ewald-force                    non-local-force                 convergence-correction
 -----------------------------------------------------------------------------------------------
   -.309E-05 -.476E-05 0.271E+04   -.234E-06 -.213E-05 -.271E+04   -.867E-18 0.000E+00 -.175E+01   0.494E-07 -.151E-07 -.176E+01
   -.383E-06 -.133E-05 0.161E+04   0.704E-06 -.395E-06 -.160E+04   -.260E-17 0.000E+00 -.152E+00   0.698E-09 -.313E-07 -.368E+01
   0.613E-05 0.109E-04 0.485E+03   -.709E-06 0.379E-06 -.484E+03   0.173E-17 0.000E+00 -.411E-01   0.655E-07 -.421E-07 -.126E+01
   0.127E-04 0.225E-04 -.640E+03   0.703E-08 0.449E-07 0.639E+03   0.520E-17 0.000E+00 -.289E+00   0.150E-07 0.699E-09 0.115E+01
   -.276E-04 -.521E-04 -.172E+04   0.231E-06 0.209E-05 0.171E+04   -.347E-17 0.000E+00 0.465E+01   -.701E-08 0.591E-07 0.134E+01
   -.633E-03 -.111E-02 -.816E+03   0.585E-09 0.913E-08 0.799E+03   0.520E-17 0.000E+00 0.168E+02   -.227E-08 0.178E-07 0.303E+00
   0.483E-03 0.798E-03 -.158E+04   0.293E-10 0.618E-09 0.165E+04   -.434E-18 -.173E-17 -.630E+02   0.130E-07 0.409E-08 0.621E+00
 -----------------------------------------------------------------------------------------------
   -.162E-03 -.335E-03 0.471E+02   -.202E-12 0.201E-12 0.227E-12   0.477E-17 -.173E-17 -.438E+02   0.134E-06 -.684E-08 -.328E+01
 
 
 POSITION                                       TOTAL-FORCE (eV/Angst)
 -----------------------------------------------------------------------------------
      0.00000      0.00000      0.00000         0.000000      0.000000      0.175454
     -0.00000      1.44112      2.03805         0.000000      0.000000     -0.064477
      1.24804      0.72056      4.07609         0.000000      0.000000     -0.040587
      0.00000      0.00000      6.10874         0.000000      0.000000     -0.093460
     -0.00000      1.44112      8.15398         0.000000      0.000000     -0.028916
     -0.00000      1.44112      9.90862         0.000000     -0.000000     -0.028473
     -0.00000      1.44112     11.06330        -0.000000      0.000000      0.080459
 -----------------------------------------------------------------------------------
    total drift:                               -0.000162     -0.000335      0.017578


--------------------------------------------------------------------------------------------------------



  FREE ENERGIE OF THE ION-ELECTRON SYSTEM (eV)
  ---------------------------------------------------
  free  energy   TOTEN  =       -41.27564671 eV

  energy  without entropy=      -41.27564671  energy(sigma->0) =      -41.27564671
 


--------------------------------------------------------------------------------------------------------


    POTLOK:  cpu time    0.0110: real time    0.0109


--------------------------------------------------------------------------------------------------------


 stress matrix after NEB project (eV)
      2.84919      0.00000      0.00000
      0.00000      2.84918     -0.00000
      0.00000      0.00000     -1.28310
  FORCES: max atom, RMS     0.093460    0.049071
  FORCE total and by dimension    0.129828    0.093460
  Stress total and by dimension    4.228719    2.849185
 writing wavefunctions
     LOOP+:  cpu time   14.8977: real time   14.9504
 vacuum level on the upper side and lower side of the slab         8.091         6.756
    4ORBIT:  cpu time    0.0000: real time    0.0000
 


 total charge     
 
# of ion       s       p       d       tot
------------------------------------------
    1        0.479   0.366   8.312   9.157
    2        0.485   0.478   8.333   9.296
    3        0.488   0.482   8.342   9.312
    4        0.494   0.488   8.335   9.317
    5        0.513   0.628   8.392   9.534
    6        0.978   1.610   0.000   2.588
    7        1.653   3.567   0.000   5.219
--------------------------------------------------
tot          5.089   7.620  41.714  54.423
 
 BZINTS: Fermi energy:  1.722660; 60.000000 electrons
         Band energy:-102.593943;  BLOECHL correction: -0.091849

 total amount of memory used by VASP MPI-rank0    42285. kBytes
=======================================================================

   base      :      30000. kBytes
   nonl-proj :       9659. kBytes
   fftplans  :        325. kBytes
   grid      :       1078. kBytes
   one-center:        108. kBytes
   wavefun   :       1115. kBytes
 
  
  
 General timing and accounting informations for this job:
 ========================================================
  
                  Total CPU time used (sec):       16.622
                            User time (sec):       16.349
                          System time (sec):        0.274
                         Elapsed time (sec):       16.968
  
                   Maximum memory used (kb):       85564.
                   Average memory used (kb):           0.
  
                          Minor page faults:        17229
                          Major page faults:            1
                 Voluntary context switches:         1913
