PROCAR lm decomposed
# of k-points:   12         # of bands:   48         # of ions:    7

 k-point     1 :    0.00000000 0.00000000 0.00000000     weight = 0.01234568

band     1 # energy  -23.01624394 # occ.  2.00000000
 
ion      s     py     pz     px    dxy    dyz    dz2    dxz  x2-y2    tot
    1  0.000  0.000  0.000  0.000  0.000  0.000  0.000  0.000  0.000  0.000
    2  0.000  0.000  0.000  0.000  0.000  0.000  0.000  0.000  0.000  0.000
    3  0.000  0.000  0.000  0.000  0.000  0.000  0.000  0.000  0.000  0.000
    4  0.000  0.000  0.000  0.000  0.000  0.000  0.000  0.000  0.000  0.000
    5  0.001  0.000  0.000  0.000  0.000  0.000  0.000  0.000  0.000  0.001
    6  0.170  0.000  0.104  0.000  0.000  0.000  0.000  0.000  0.000  0.275
    7  0.600  0.000  0.089  0.000  0.000  0.000  0.000  0.000  0.000  0.689
tot    0.771  0.000  0.194  0.000  0.000  0.000  0.000  0.000  0.000  0.965
 
band     2 # energy  -10.12237997 # occ.  2.00000000
 
ion      s     py     pz     px    dxy    dyz    dz2    dxz  x2-y2    tot
    1  0.000  0.000  0.000  0.000  0.000  0.000  0.000  0.000  0.000  0.000
    2  0.000  0.000  0.000  0.000  0.000  0.000  0.000  0.000  0.000  0.000
    3  0.000  0.000  0.000  0.000  0.000  0.000  0.000  0.000  0.000  0.000
    4  0.005  0.000  0.001  0.000  0.000  0.000  0.000  0.000  0.000  0.006
    5  0.135  0.000  0.048  0.000  0.000  0.000  0.028  0.000  0.000  0.211
    6  0.242  0.000  0.051  0.000  0.000  0.000  0.000  0.000  0.000  0.292
    7  0.113  0.000  0.048  0.000  0.000  0.000  0.000  0.000  0.000  0.160
tot    0.493  0.000  0.148  0.000  0.000  0.000  0.028  0.000  0.000  0.669
 
band     3 # energy   -6.74801302 # occ.  2.00000000
 
ion      s     py     pz     px    dxy    dyz    dz2    dxz  x2-y2    tot
    1  0.028  0.000  0.004  0.000  0.000  0.000  0.000  0.000  0.000  0.031
    2  0.122  0.000  0.002  0.000  0.000  0.000  0.000  0.000  0.000  0.124
    3  0.197  0.000  0.000  0.000  0.000  0.000  0.000  0.000  0.000  0.197
    4  0.173  0.000  0.001  0.000  0.000  0.000  0.000  0.000  0.000  0.174
    5  0.067  0.000  0.004  0.000  0.000  0.000  0.000  0.000  0.000  0.071
    6  0.007  0.000  0.025  0.000  0.000  0.000  0.000  0.000  0.000  0.032
    7  0.018  0.000  0.093  0.000  0.000  0.000  0.000  0.000  0.000  0.111
tot    0.613  0.000  0.129  0.000  0.000  0.000  0.001  0.000  0.000  0.742
 
band     4 # energy   -6.30303653 # occ.  2.00000000
 
ion      s     py     pz     px    dxy    dyz    dz2    dxz  x2-y2    tot
    1  0.046  0.000  0.005  0.000  0.000  0.000  0.000  0.000  0.000  0.051
    2  0.131  0.000  0.000  0.000  0.000  0.000  0.001  0.000  0.000  0.132
    3  0.070  0.000  0.004  0.000  0.000  0.000  0.000  0.000  0.000  0.075
    4  0.000  0.000  0.009  0.000  0.000  0.000  0.000  0.000  0.000  0.009
    5  0.077  0.000  0.006  0.000  0.000  0.000  0.003  0.000  0.000  0.086
    6  0.004  0.000  0.110  0.000  0.000  0.000  0.000  0.000  0.000  0.115
    7  0.036  0.000  0.282  0.000  0.000  0.000  0.000  0.000  0.000  0.318
tot    0.364  0.000  0.417  0.000  0.000  0.000  0.004  0.000  0.000  0.786
 
band     5 # energy   -5.45877070 # occ.  2.00000000
 
ion      s     py     pz     px    dxy    dyz    dz2    dxz  x2-y2    tot
    1  0.139  0.000  0.008  0.000  0.000  0.000  0.002  0.000  0.000  0.150
    2  0.127  0.000  0.012  0.000  0.000  0.000  0.004  0.000  0.000  0.143
    3  0.027  0.000  0.027  0.000  0.000  0.000  0.001  0.000  0.000  0.056
    4  0.200  0.000  0.000  0.000  0.000  0.000  0.006  0.000  0.000  0.206
    5  0.006  0.000  0.043  0.000  0.000  0.000  0.010  0.000  0.000  0.058
    6  0.002  0.000  0.048  0.000  0.000  0.000  0.000  0.000  0.000  0.050
    7  0.004  0.000  0.075  0.000  0.000  0.000  0.000  0.000  0.000  0.078
tot    0.504  0.000  0.214  0.000  0.000  0.000  0.023  0.000  0.000  0.741
 
band     6 # energy   -4.15694267 # occ.  2.00000000
 
ion      s     py     pz     px    dxy    dyz    dz2    dxz  x2-y2    tot
    1  0.162  0.000  0.001  0.000  0.000  0.000  0.023  0.000  0.000  0.186
    2  0.000  0.000  0.046  0.000  0.000  0.000  0.000  0.000  0.000  0.046
    3  0.151  0.000  0.004  0.000  0.000  0.000  0.036  0.000  0.000  0.190
    4  0.043  0.000  0.036  0.000  0.000  0.000  0.008  0.000  0.000  0.088
    5  0.082  0.000  0.039  0.000  0.000  0.000  0.074  0.000  0.000  0.194
    6  0.006  0.000  0.023  0.000  0.000  0.000  0.000  0.000  0.000  0.029
    7  0.000  0.000  0.019  0.000  0.000  0.000  0.000  0.000  0.000  0.019
tot    0.444  0.000  0.167  0.000  0.000  0.000  0.141  0.000  0.000  0.752
 
band     7 # energy   -3.18992613 # occ.  2.00000000
 
ion      s     py     pz     px    dxy    dyz    dz2    dxz  x2-y2    tot
    1  0.076  0.000  0.002  0.000  0.000  0.000  0.044  0.000  0.000  0.122
    2  0.041  0.000  0.011  0.000  0.000  0.000  0.041  0.000  0.000  0.093
    3  0.000  0.000  0.023  0.000  0.000  0.000  0.001  0.000  0.000  0.024
    4  0.053  0.000  0.011  0.000  0.000  0.000  0.075  0.000  0.000  0.139
    5  0.102  0.000  0.001  0.000  0.000  0.000  0.345  0.000  0.000  0.448
    6  0.005  0.000  0.008  0.000  0.000  0.000  0.000  0.000  0.000  0.012
    7  0.000  0.000  0.002  0.000  0.000  0.000  0.000  0.000  0.000  0.002
tot    0.278  0.000  0.057  0.000  0.000  0.000  0.506  0.000  0.000  0.841
 
band     8 # energy   -2.73452539 # occ.  2.00000000
 
ion      s     py     pz     px    dxy    dyz    dz2    dxz  x2-y2    tot
    1  0.060  0.000  0.006  0.000  0.000  0.000  0.080  0.000  0.000  0.146
    2  0.076  0.000  0.000  0.000  0.000  0.000  0.200  0.000  0.000  0.276
    3  0.058  0.000  0.002  0.000  0.000  0.000  0.168  0.000  0.000  0.228
    4  0.026  0.000  0.005  0.000  0.000  0.000  0.092  0.000  0.000  0.123
    5  0.007  0.000  0.002  0.000  0.000  0.000  0.080  0.000  0.000  0.089
    6  0.000  0.000  0.000  0.000  0.000  0.000  0.000  0.000  0.000  0.000
    7  0.000  0.000  0.000  0.000  0.000  0.000  0.000  0.000  0.000  0.000
tot    0.229  0.000  0.015  0.000  0.000  0.000  0.619  0.000  0.000  0.862
 
band     9 # energy   -2.06751284 # occ.  2.00000000
 
ion      s     py     pz     px    dxy    dyz    dz2    dxz  x2-y2    tot
    1  0.000  0.000  0.000  0.000  0.000  0.000  0.000  0.000  0.000  0.000
    2  0.000  0.000  0.000  0.000  0.000  0.000  0.000  0.000  0.000  0.000
    3  0.000  0.000  0.000  0.000  0.000  0.000  0.000  0.000  0.000  0.000
    4  0.000  0.000  0.000  0.000  0.000  0.000  0.000  0.000  0.000  0.000
    5  0.000  0.000  0.000  0.000  0.000  0.006  0.000  0.019  0.000  0.026
    6  0.000  0.046  0.000  0.137  0.000  0.000  0.000  0.000  0.000  0.182
    7  0.000  0.159  0.000  0.476  0.000  0.000  0.000  0.000  0.000  0.634
tot    0.000  0.204  0.000  0.613  0.000  0.006  0.000  0.019  0.000  0.843
 
band    10 # energy   -2.06567284 # occ.  2.00000000
 
ion      s     py     pz     px    dxy    dyz    dz2    dxz  x2-y2    tot
    1  0.000  0.000  0.000  0.000  0.000  0.000  0.000  0.000  0.000  0.000
    2  0.000  0.000  0.000  0.000  0.000  0.000  0.000  0.000  0.000  0.000
    3  0.000  0.000  0.000  0.000  0.000  0.000  0.000  0.000  0.000  0.000
    4  0.000  0.000  0.000  0.000  0.000  0.000  0.000  0.000  0.000  0.000
    5  0.000  0.000  0.000  0.000  0.000  0.019  0.000  0.006  0.000  0.026
    6  0.000  0.137  0.000  0.046  0.000  0.000  0.000  0.000  0.000  0.182
    7  0.000  0.476  0.000  0.159  0.000  0.000  0.000  0.000  0.000  0.634
tot    0.000  0.613  0.000  0.204  0.000  0.019  0.000  0.006  0.000  0.843
 
band    11 # energy   -0.51734783 # occ.  2.00000000
 
ion      s     py     pz     px    dxy    dyz    dz2    dxz  x2-y2    tot
    1  0.001  0.000  0.000  0.000  0.000  0.000  0.006  0.000  0.000  0.007
    2  0.000  0.000  0.008  0.000  0.000  0.000  0.081  0.000  0.000  0.090
    3  0.004  0.000  0.003  0.000  0.000  0.000  0.108  0.000  0.000  0.115
    4  0.001  0.000  0.033  0.000  0.000  0.000  0.371  0.000  0.000  0.404
    5  0.007  0.000  0.042  0.000  0.000  0.000  0.237  0.000  0.000  0.285
    6  0.001  0.000  0.002  0.000  0.000  0.000  0.000  0.000  0.000  0.003
    7  0.000  0.000  0.005  0.000  0.000  0.000  0.000  0.000  0.000  0.006
tot    0.014  0.000  0.093  0.000  0.000  0.000  0.803  0.000  0.000  0.910
 
band    12 # energy   -0.24570853 # occ.  2.00000000
 
ion      s     py     pz     px    dxy    dyz    dz2    dxz  x2-y2    tot
    1  0.001  0.000  0.002  0.000  0.000  0.000  0.092  0.000  0.000  0.094
    2  0.001  0.000  0.014  0.000  0.000  0.000  0.007  0.000  0.000  0.022
    3  0.003  0.000  0.002  0.000  0.000  0.000  0.538  0.000  0.000  0.544
    4  0.000  0.000  0.013  0.000  0.000  0.000  0.277  0.000  0.000  0.290
    5  0.001  0.000  0.000  0.000  0.000  0.000  0.002  0.000  0.000  0.003
    6  0.000  0.000  0.000  0.000  0.000  0.000  0.000  0.000  0.000  0.000
    7  0.000  0.000  0.000  0.000  0.000  0.000  0.000  0.000  0.000  0.000
tot    0.006  0.000  0.030  0.000  0.000  0.000  0.917  0.000  0.000  0.953
 
band    13 # energy   -0.15200616 # occ.  2.00000000
 
ion      s     py     pz     px    dxy    dyz    dz2    dxz  x2-y2    tot
    1  0.000  0.000  0.000  0.000  0.003  0.000  0.000  0.000  0.000  0.003
    2  0.000  0.000  0.000  0.000  0.013  0.000  0.000  0.004  0.001  0.018
    3  0.000  0.000  0.000  0.000  0.099  0.000  0.000  0.001  0.005  0.105
    4  0.000  0.000  0.000  0.000  0.096  0.002  0.000  0.039  0.005  0.142
    5  0.000  0.000  0.000  0.000  0.668  0.000  0.000  0.001  0.035  0.704
    6  0.000  0.000  0.000  0.000  0.000  0.000  0.000  0.000  0.000  0.000
    7  0.000  0.000  0.000  0.000  0.000  0.000  0.000  0.000  0.000  0.000
tot    0.000  0.000  0.000  0.000  0.878  0.002  0.000  0.045  0.046  0.971
 
band    14 # energy   -0.15200535 # occ.  2.00000000
 
ion      s     py     pz     px    dxy    dyz    dz2    dxz  x2-y2    tot
    1  0.000  0.000  0.000  0.000  0.000  0.000  0.000  0.000  0.003  0.003
    2  0.000  0.000  0.000  0.000  0.001  0.004  0.000  0.000  0.013  0.018
    3  0.000  0.000  0.000  0.000  0.005  0.001  0.000  0.000  0.099  0.105
    4  0.000  0.000  0.000  0.000  0.005  0.039  0.000  0.002  0.096  0.142
    5  0.000  0.000  0.000  0.000  0.035  0.001  0.000  0.000  0.668  0.704
    6  0.000  0.000  0.000  0.000  0.000  0.000  0.000  0.000  0.000  0.000
    7  0.000  0.000  0.000  0.000  0.000  0.000  0.000  0.000  0.000  0.000
tot    0.000  0.000  0.000  0.000  0.046  0.045  0.000  0.002  0.878  0.971
 
band    15 # energy   -0.11564074 # occ.  2.00000000
 
ion      s     py     pz     px    dxy    dyz    dz2    dxz  x2-y2    tot
    1  0.001  0.000  0.011  0.000  0.000  0.000  0.270  0.000  0.000  0.282
    2  0.007  0.000  0.001  0.000  0.000  0.000  0.525  0.000  0.000  0.532
    3  0.003  0.000  0.021  0.000  0.000  0.000  0.021  0.000  0.000  0.044
    4  0.000  0.000  0.022  0.000  0.000  0.000  0.005  0.000  0.000  0.027
    5  0.004  0.000  0.009  0.000  0.000  0.000  0.036  0.000  0.000  0.049
    6  0.000  0.000  0.001  0.000  0.000  0.000  0.000  0.000  0.000  0.001
    7  0.000  0.000  0.001  0.000  0.000  0.000  0.000  0.000  0.000  0.001
tot    0.015  0.000  0.065  0.000  0.000  0.000  0.856  0.000  0.000  0.936
 
band    16 # energy   -0.10003495 # occ.  2.00000000
 
ion      s     py     pz     px    dxy    dyz    dz2    dxz  x2-y2    tot
    1  0.000  0.000  0.000  0.000  0.000  0.001  0.000  0.004  0.000  0.005
    2  0.000  0.000  0.000  0.000  0.109  0.001  0.000  0.004  0.032  0.146
    3  0.000  0.000  0.000  0.000  0.000  0.016  0.000  0.056  0.000  0.073
    4  0.000  0.000  0.000  0.000  0.352  0.010  0.000  0.034  0.104  0.500
    5  0.000  0.000  0.000  0.000  0.058  0.038  0.000  0.128  0.017  0.241
    6  0.000  0.000  0.000  0.000  0.000  0.000  0.000  0.000  0.000  0.000
    7  0.000  0.002  0.000  0.006  0.000  0.000  0.000  0.000  0.000  0.008
tot    0.000  0.002  0.000  0.006  0.519  0.067  0.000  0.227  0.153  0.973
 
band    17 # energy   -0.10001406 # occ.  2.00000000
 
ion      s     py     pz     px    dxy    dyz    dz2    dxz  x2-y2    tot
    1  0.000  0.000  0.000  0.000  0.000  0.004  0.000  0.001  0.000  0.005
    2  0.000  0.000  0.000  0.000  0.032  0.004  0.000  0.001  0.109  0.146
    3  0.000  0.000  0.000  0.000  0.000  0.056  0.000  0.016  0.000  0.073
    4  0.000  0.000  0.000  0.000  0.104  0.034  0.000  0.010  0.352  0.500
    5  0.000  0.000  0.000  0.000  0.017  0.128  0.000  0.038  0.058  0.241
    6  0.000  0.000  0.000  0.000  0.000  0.000  0.000  0.000  0.000  0.000
    7  0.000  0.006  0.000  0.002  0.000  0.000  0.000  0.000  0.000  0.008
tot    0.000  0.006  0.000  0.002  0.153  0.227  0.000  0.067  0.519  0.973
 
band    18 # energy   -0.01466964 # occ.  2.00000000
 
ion      s     py     pz     px    dxy    dyz    dz2    dxz  x2-y2    tot
    1  0.000  0.000  0.000  0.000  0.049  0.001  0.000  0.002  0.017  0.069
    2  0.000  0.000  0.000  0.000  0.179  0.009  0.000  0.025  0.062  0.274
    3  0.000  0.000  0.000  0.000  0.330  0.000  0.000  0.001  0.114  0.444
    4  0.000  0.000  0.000  0.000  0.033  0.005  0.000  0.013  0.011  0.062
    5  0.000  0.000  0.000  0.000  0.067  0.008  0.000  0.023  0.023  0.121
    6  0.000  0.000  0.000  0.000  0.000  0.000  0.000  0.000  0.000  0.000
    7  0.000  0.000  0.000  0.001  0.000  0.000  0.000  0.000  0.000  0.001
tot    0.000  0.000  0.000  0.001  0.658  0.022  0.000  0.064  0.227  0.972
 
band    19 # energy   -0.01466037 # occ.  2.00000000
 
ion      s     py     pz     px    dxy    dyz    dz2    dxz  x2-y2    tot
    1  0.000  0.000  0.000  0.000  0.017  0.002  0.000  0.001  0.049  0.069
    2  0.000  0.000  0.000  0.000  0.062  0.025  0.000  0.009  0.179  0.274
    3  0.000  0.000  0.000  0.000  0.114  0.001  0.000  0.000  0.330  0.444
    4  0.000  0.000  0.000  0.000  0.011  0.013  0.000  0.005  0.033  0.062
    5  0.000  0.000  0.000  0.000  0.023  0.023  0.000  0.008  0.067  0.121
    6  0.000  0.000  0.000  0.000  0.000  0.000  0.000  0.000  0.000  0.000
    7  0.000  0.001  0.000  0.000  0.000  0.000  0.000  0.000  0.000  0.001
tot    0.000  0.001  0.000  0.000  0.227  0.064  0.000  0.022  0.658  0.972
 
band    20 # energy    0.04347623 # occ.  2.00000000
 
ion      s     py     pz     px    dxy    dyz    dz2    dxz  x2-y2    tot
    1  0.000  0.000  0.000  0.000  0.000  0.006  0.000  0.018  0.000  0.024
    2  0.000  0.000  0.000  0.000  0.359  0.011  0.000  0.034  0.112  0.516
    3  0.000  0.000  0.000  0.000  0.175  0.006  0.000  0.020  0.054  0.256
    4  0.000  0.000  0.000  0.000  0.068  0.000  0.000  0.001  0.021  0.092
    5  0.000  0.000  0.000  0.000  0.040  0.008  0.000  0.025  0.013  0.086
    6  0.000  0.000  0.000  0.000  0.000  0.000  0.000  0.000  0.000  0.000
    7  0.000  0.000  0.000  0.001  0.000  0.000  0.000  0.000  0.000  0.001
tot    0.000  0.001  0.000  0.002  0.643  0.031  0.000  0.098  0.200  0.975
 
band    21 # energy    0.04348336 # occ.  2.00000000
 
ion      s     py     pz     px    dxy    dyz    dz2    dxz  x2-y2    tot
    1  0.000  0.000  0.000  0.000  0.000  0.018  0.000  0.006  0.000  0.024
    2  0.000  0.000  0.000  0.000  0.112  0.034  0.000  0.011  0.359  0.516
    3  0.000  0.000  0.000  0.000  0.054  0.020  0.000  0.006  0.175  0.256
    4  0.000  0.000  0.000  0.000  0.021  0.001  0.000  0.000  0.069  0.092
    5  0.000  0.000  0.000  0.000  0.013  0.025  0.000  0.008  0.040  0.086
    6  0.000  0.000  0.000  0.000  0.000  0.000  0.000  0.000  0.000  0.000
    7  0.000  0.001  0.000  0.000  0.000  0.000  0.000  0.000  0.000  0.001
tot    0.000  0.002  0.000  0.001  0.200  0.098  0.000  0.031  0.643  0.975
 
band    22 # energy    0.22116397 # occ.  2.00000000
 
ion      s     py     pz     px    dxy    dyz    dz2    dxz  x2-y2    tot
    1  0.000  0.000  0.000  0.000  0.605  0.001  0.000  0.004  0.215  0.825
    2  0.000  0.000  0.000  0.000  0.005  0.012  0.000  0.033  0.002  0.052
    3  0.000  0.000  0.000  0.000  0.056  0.000  0.000  0.001  0.020  0.078
    4  0.000  0.000  0.000  0.000  0.000  0.002  0.000  0.004  0.000  0.006
    5  0.000  0.000  0.000  0.000  0.003  0.002  0.000  0.007  0.001  0.013
    6  0.000  0.000  0.000  0.000  0.000  0.000  0.000  0.000  0.000  0.000
    7  0.000  0.000  0.000  0.000  0.000  0.000  0.000  0.000  0.000  0.000
tot    0.000  0.000  0.000  0.001  0.669  0.017  0.000  0.049  0.238  0.975
 
band    23 # energy    0.22117036 # occ.  2.00000000
 
ion      s     py     pz     px    dxy    dyz    dz2    dxz  x2-y2    tot
    1  0.000  0.000  0.000  0.000  0.215  0.004  0.000  0.001  0.605  0.825
    2  0.000  0.000  0.000  0.000  0.002  0.033  0.000  0.012  0.005  0.052
    3  0.000  0.000  0.000  0.000  0.020  0.001  0.000  0.000  0.056  0.078
    4  0.000  0.000  0.000  0.000  0.000  0.004  0.000  0.002  0.000  0.006
    5  0.000  0.000  0.000  0.000  0.001  0.007  0.000  0.002  0.003  0.013
    6  0.000  0.000  0.000  0.000  0.000  0.000  0.000  0.000  0.000  0.000
    7  0.000  0.000  0.000  0.000  0.000  0.000  0.000  0.000  0.000  0.000
tot    0.000  0.001  0.000  0.000  0.238  0.049  0.000  0.017  0.669  0.975
 
band    24 # energy    0.34236774 # occ.  2.00000000
 
ion      s     py     pz     px    dxy    dyz    dz2    dxz  x2-y2    tot
    1  0.021  0.000  0.002  0.000  0.000  0.000  0.358  0.000  0.000  0.382
    2  0.013  0.000  0.046  0.000  0.000  0.000  0.025  0.000  0.000  0.083
    3  0.001  0.000  0.102  0.000  0.000  0.000  0.009  0.000  0.000  0.111
    4  0.005  0.000  0.077  0.000  0.000  0.000  0.040  0.000  0.000  0.123
    5  0.014  0.000  0.017  0.000  0.000  0.000  0.051  0.000  0.000  0.082
    6  0.001  0.000  0.001  0.000  0.000  0.000  0.000  0.000  0.000  0.003
    7  0.000  0.000  0.003  0.000  0.000  0.000  0.000  0.000  0.000  0.003
tot    0.055  0.000  0.248  0.000  0.000  0.000  0.483  0.000  0.000  0.786
 
band    25 # energy    0.48740586 # occ.  2.00000000
 
ion      s     py     pz     px    dxy    dyz    dz2    dxz  x2-y2    tot
    1  0.000  0.000  0.000  0.000  0.005  0.000  0.000  0.000  0.002  0.007
    2  0.000  0.000  0.000  0.000  0.005  0.001  0.000  0.002  0.002  0.010
    3  0.000  0.000  0.000  0.000  0.008  0.005  0.000  0.015  0.003  0.032
    4  0.000  0.000  0.000  0.000  0.166  0.004  0.000  0.012  0.057  0.239
    5  0.000  0.000  0.000  0.000  0.013  0.165  0.000  0.485  0.004  0.667
    6  0.000  0.000  0.000  0.001  0.000  0.000  0.000  0.000  0.000  0.001
    7  0.000  0.006  0.000  0.017  0.000  0.000  0.000  0.000  0.000  0.023
tot    0.000  0.006  0.000  0.018  0.198  0.175  0.000  0.514  0.067  0.979
 
band    26 # energy    0.48746464 # occ.  2.00000000
 
ion      s     py     pz     px    dxy    dyz    dz2    dxz  x2-y2    tot
    1  0.000  0.000  0.000  0.000  0.002  0.000  0.000  0.000  0.005  0.007
    2  0.000  0.000  0.000  0.000  0.002  0.002  0.000  0.001  0.005  0.010
    3  0.000  0.000  0.000  0.000  0.003  0.015  0.000  0.005  0.008  0.032
    4  0.000  0.000  0.000  0.000  0.057  0.012  0.000  0.004  0.166  0.239
    5  0.000  0.000  0.000  0.000  0.004  0.485  0.000  0.165  0.013  0.667
    6  0.000  0.001  0.000  0.000  0.000  0.000  0.000  0.000  0.000  0.001
    7  0.000  0.017  0.000  0.006  0.000  0.000  0.000  0.000  0.000  0.023
tot    0.000  0.018  0.000  0.006  0.067  0.514  0.000  0.175  0.198  0.979
 
band    27 # energy    0.99284470 # occ.  2.00000000
 
ion      s     py     pz     px    dxy    dyz    dz2    dxz  x2-y2    tot
    1  0.000  0.000  0.000  0.000  0.026  0.002  0.000  0.006  0.007  0.041
    2  0.000  0.000  0.000  0.000  0.051  0.046  0.000  0.164  0.015  0.277
    3  0.000  0.000  0.000  0.000  0.070  0.088  0.000  0.310  0.020  0.488
    4  0.000  0.000  0.000  0.000  0.035  0.028  0.000  0.098  0.010  0.171
    5  0.000  0.000  0.000  0.000  0.007  0.000  0.000  0.002  0.002  0.011
    6  0.000  0.000  0.000  0.000  0.000  0.000  0.000  0.000  0.000  0.000
    7  0.000  0.000  0.000  0.000  0.000  0.000  0.000  0.000  0.000  0.000
tot    0.000  0.000  0.000  0.000  0.189  0.164  0.000  0.580  0.054  0.987
 
band    28 # energy    0.99284776 # occ.  2.00000000
 
ion      s     py     pz     px    dxy    dyz    dz2    dxz  x2-y2    tot
    1  0.000  0.000  0.000  0.000  0.007  0.006  0.000  0.002  0.026  0.041
    2  0.000  0.000  0.000  0.000  0.015  0.164  0.000  0.046  0.051  0.277
    3  0.000  0.000  0.000  0.000  0.020  0.310  0.000  0.088  0.070  0.488
    4  0.000  0.000  0.000  0.000  0.010  0.098  0.000  0.028  0.035  0.171
    5  0.000  0.000  0.000  0.000  0.002  0.002  0.000  0.000  0.007  0.011
    6  0.000  0.000  0.000  0.000  0.000  0.000  0.000  0.000  0.000  0.000
    7  0.000  0.000  0.000  0.000  0.000  0.000  0.000  0.000  0.000  0.000
tot    0.000  0.000  0.000  0.000  0.054  0.580  0.000  0.164  0.189  0.987
 
band    29 # energy    1.11044136 # occ.  2.00000000
 
ion      s     py     pz     px    dxy    dyz    dz2    dxz  x2-y2    tot
    1  0.000  0.000  0.000  0.000  0.028  0.038  0.000  0.094  0.011  0.171
    2  0.000  0.000  0.000  0.000  0.004  0.112  0.000  0.275  0.002  0.393
    3  0.000  0.000  0.000  0.000  0.000  0.014  0.000  0.035  0.000  0.050
    4  0.000  0.000  0.000  0.000  0.002  0.095  0.000  0.233  0.001  0.331
    5  0.000  0.000  0.000  0.000  0.010  0.007  0.000  0.018  0.004  0.039
    6  0.000  0.000  0.000  0.000  0.000  0.000  0.000  0.000  0.000  0.000
    7  0.000  0.000  0.000  0.001  0.000  0.000  0.000  0.000  0.000  0.001
tot    0.000  0.000  0.000  0.001  0.043  0.268  0.000  0.655  0.018  0.985
 
band    30 # energy    1.11044448 # occ.  2.00000000
 
ion      s     py     pz     px    dxy    dyz    dz2    dxz  x2-y2    tot
    1  0.000  0.000  0.000  0.000  0.011  0.094  0.000  0.038  0.028  0.171
    2  0.000  0.000  0.000  0.000  0.002  0.275  0.000  0.112  0.004  0.393
    3  0.000  0.000  0.000  0.000  0.000  0.035  0.000  0.014  0.000  0.050
    4  0.000  0.000  0.000  0.000  0.001  0.233  0.000  0.095  0.002  0.331
    5  0.000  0.000  0.000  0.000  0.004  0.018  0.000  0.007  0.010  0.039
    6  0.000  0.000  0.000  0.000  0.000  0.000  0.000  0.000  0.000  0.000
    7  0.000  0.001  0.000  0.000  0.000  0.000  0.000  0.000  0.000  0.001
tot    0.000  0.001  0.000  0.000  0.018  0.655  0.000  0.268  0.043  0.985
 
band    31 # energy    1.43963391 # occ.  2.00000000
 
ion      s     py     pz     px    dxy    dyz    dz2    dxz  x2-y2    tot
    1  0.000  0.000  0.000  0.000  0.001  0.090  0.000  0.227  0.000  0.317
    2  0.000  0.000  0.000  0.000  0.000  0.001  0.000  0.003  0.000  0.005
    3  0.000  0.000  0.000  0.000  0.008  0.075  0.000  0.189  0.003  0.275
    4  0.000  0.000  0.000  0.000  0.007  0.099  0.000  0.250  0.003  0.358
    5  0.000  0.000  0.000  0.000  0.006  0.006  0.000  0.016  0.002  0.030
    6  0.000  0.000  0.000  0.000  0.000  0.000  0.000  0.000  0.000  0.000
    7  0.000  0.000  0.000  0.000  0.000  0.000  0.000  0.000  0.000  0.001
tot    0.000  0.000  0.000  0.001  0.021  0.270  0.000  0.686  0.008  0.987
 
band    32 # energy    1.43964128 # occ.  2.00000000
 
ion      s     py     pz     px    dxy    dyz    dz2    dxz  x2-y2    tot
    1  0.000  0.000  0.000  0.000  0.000  0.227  0.000  0.090  0.001  0.317
    2  0.000  0.000  0.000  0.000  0.000  0.003  0.000  0.001  0.000  0.005
    3  0.000  0.000  0.000  0.000  0.003  0.189  0.000  0.075  0.008  0.275
    4  0.000  0.000  0.000  0.000  0.003  0.250  0.000  0.099  0.007  0.358
    5  0.000  0.000  0.000  0.000  0.002  0.016  0.000  0.006  0.006  0.030
    6  0.000  0.000  0.000  0.000  0.000  0.000  0.000  0.000  0.000  0.000
    7  0.000  0.000  0.000  0.000  0.000  0.000  0.000  0.000  0.000  0.001
tot    0.000  0.001  0.000  0.000  0.008  0.686  0.000  0.270  0.021  0.987
 
band    33 # energy    1.69296466 # occ.  2.00000000
 
ion      s     py     pz     px    dxy    dyz    dz2    dxz  x2-y2    tot
    1  0.000  0.000  0.000  0.000  0.004  0.142  0.000  0.351  0.001  0.498
    2  0.000  0.000  0.000  0.000  0.017  0.071  0.000  0.175  0.007  0.270
    3  0.000  0.000  0.000  0.000  0.007  0.043  0.000  0.107  0.003  0.160
    4  0.000  0.000  0.000  0.000  0.003  0.016  0.000  0.039  0.001  0.058
    5  0.000  0.000  0.000  0.000  0.001  0.001  0.000  0.002  0.000  0.004
    6  0.000  0.000  0.000  0.000  0.000  0.000  0.000  0.000  0.000  0.000
    7  0.000  0.000  0.000  0.000  0.000  0.000  0.000  0.000  0.000  0.000
tot    0.000  0.000  0.000  0.000  0.030  0.273  0.000  0.674  0.012  0.990
 
band    34 # energy    1.69297328 # occ.  0.15806756
 
ion      s     py     pz     px    dxy    dyz    dz2    dxz  x2-y2    tot
    1  0.000  0.000  0.000  0.000  0.001  0.351  0.000  0.142  0.004  0.498
    2  0.000  0.000  0.000  0.000  0.007  0.175  0.000  0.071  0.017  0.270
    3  0.000  0.000  0.000  0.000  0.003  0.107  0.000  0.043  0.007  0.160
    4  0.000  0.000  0.000  0.000  0.001  0.039  0.000  0.016  0.003  0.058
    5  0.000  0.000  0.000  0.000  0.000  0.002  0.000  0.001  0.001  0.004
    6  0.000  0.000  0.000  0.000  0.000  0.000  0.000  0.000  0.000  0.000
    7  0.000  0.000  0.000  0.000  0.000  0.000  0.000  0.000  0.000  0.000
tot    0.000  0.000  0.000  0.000  0.012  0.674  0.000  0.273  0.030  0.990
 
band    35 # energy    1.84832376 # occ.  0.00000000
 
ion      s     py     pz     px    dxy    dyz    dz2    dxz  x2-y2    tot
    1  0.012  0.000  0.193  0.000  0.000  0.000  0.024  0.000  0.000  0.229
    2  0.010  0.000  0.103  0.000  0.000  0.000  0.017  0.000  0.000  0.129
    3  0.007  0.000  0.048  0.000  0.000  0.000  0.013  0.000  0.000  0.068
    4  0.006  0.000  0.016  0.000  0.000  0.000  0.012  0.000  0.000  0.034
    5  0.005  0.000  0.002  0.000  0.000  0.000  0.008  0.000  0.000  0.015
    6  0.000  0.000  0.000  0.000  0.000  0.000  0.000  0.000  0.000  0.001
    7  0.000  0.000  0.001  0.000  0.000  0.000  0.000  0.000  0.000  0.001
tot    0.040  0.000  0.362  0.000  0.000  0.000  0.074  0.000  0.000  0.476
 
band    36 # energy    6.55894405 # occ.  0.00000000
 
ion      s     py     pz     px    dxy    dyz    dz2    dxz  x2-y2    tot
    1  0.021  0.000  0.001  0.000  0.000  0.000  0.025  0.000  0.000  0.048
    2  0.018  0.000  0.000  0.000  0.000  0.000  0.017  0.000  0.000  0.035
    3  0.020  0.000  0.001  0.000  0.000  0.000  0.020  0.000  0.000  0.042
    4  0.030  0.000  0.005  0.000  0.000  0.000  0.031  0.000  0.000  0.066
    5  0.052  0.000  0.011  0.000  0.000  0.000  0.050  0.000  0.000  0.113
    6  0.011  0.000  0.000  0.000  0.000  0.000  0.000  0.000  0.000  0.011
    7  0.023  0.000  0.004  0.000  0.000  0.000  0.000  0.000  0.000  0.027
tot    0.176  0.000  0.022  0.000  0.000  0.000  0.143  0.000  0.000  0.341
 
band    37 # energy    7.28921246 # occ.  0.00000000
 
ion      s     py     pz     px    dxy    dyz    dz2    dxz  x2-y2    tot
    1  0.005  0.000  0.017  0.000  0.000  0.000  0.006  0.000  0.000  0.028
    2  0.000  0.000  0.016  0.000  0.000  0.000  0.000  0.000  0.000  0.017
    3  0.011  0.000  0.018  0.000  0.000  0.000  0.011  0.000  0.000  0.040
    4  0.041  0.000  0.022  0.000  0.000  0.000  0.041  0.000  0.000  0.105
    5  0.091  0.000  0.022  0.000  0.000  0.000  0.099  0.000  0.000  0.212
    6  0.014  0.000  0.006  0.000  0.000  0.000  0.000  0.000  0.000  0.020
    7  0.013  0.000  0.036  0.000  0.000  0.000  0.000  0.000  0.000  0.049
tot    0.175  0.000  0.138  0.000  0.000  0.000  0.157  0.000  0.000  0.471
 
band    38 # energy    8.03846689 # occ.  0.00000000
 
ion      s     py     pz     px    dxy    dyz    dz2    dxz  x2-y2    tot
    1  0.000  0.000  0.000  0.000  0.000  0.000  0.000  0.000  0.000  0.000
    2  0.000  0.000  0.000  0.000  0.000  0.000  0.000  0.000  0.000  0.000
    3  0.000  0.000  0.000  0.000  0.000  0.000  0.000  0.000  0.000  0.000
    4  0.000  0.000  0.000  0.000  0.000  0.000  0.000  0.000  0.000  0.000
    5  0.000  0.002  0.000  0.007  0.000  0.008  0.000  0.024  0.000  0.041
    6  0.000  0.137  0.000  0.412  0.000  0.000  0.000  0.000  0.000  0.549
    7  0.000  0.049  0.000  0.146  0.000  0.000  0.000  0.000  0.000  0.195
tot    0.000  0.188  0.000  0.565  0.000  0.008  0.000  0.024  0.000  0.786
 
band    39 # energy    8.04029906 # occ.  0.00000000
 
ion      s     py     pz     px    dxy    dyz    dz2    dxz  x2-y2    tot
    1  0.000  0.000  0.000  0.000  0.000  0.000  0.000  0.000  0.000  0.000
    2  0.000  0.000  0.000  0.000  0.000  0.000  0.000  0.000  0.000  0.000
    3  0.000  0.000  0.000  0.000  0.000  0.000  0.000  0.000  0.000  0.000
    4  0.000  0.000  0.000  0.000  0.000  0.000  0.000  0.000  0.000  0.000
    5  0.000  0.007  0.000  0.002  0.000  0.024  0.000  0.008  0.000  0.041
    6  0.000  0.412  0.000  0.137  0.000  0.000  0.000  0.000  0.000  0.549
    7  0.000  0.146  0.000  0.049  0.000  0.000  0.000  0.000  0.000  0.195
tot    0.000  0.565  0.000  0.188  0.000  0.024  0.000  0.008  0.000  0.786
 
band    40 # energy    8.90361215 # occ.  0.00000000
 
ion      s     py     pz     px    dxy    dyz    dz2    dxz  x2-y2    tot
    1  0.041  0.000  0.001  0.000  0.000  0.000  0.050  0.000  0.000  0.092
    2  0.042  0.000  0.000  0.000  0.000  0.000  0.046  0.000  0.000  0.089
    3  0.028  0.000  0.005  0.000  0.000  0.000  0.032  0.000  0.000  0.065
    4  0.010  0.000  0.011  0.000  0.000  0.000  0.011  0.000  0.000  0.031
    5  0.000  0.000  0.016  0.000  0.000  0.000  0.001  0.000  0.000  0.016
    6  0.002  0.000  0.006  0.000  0.000  0.000  0.000  0.000  0.000  0.008
    7  0.026  0.000  0.005  0.000  0.000  0.000  0.000  0.000  0.000  0.031
tot    0.149  0.000  0.044  0.000  0.000  0.000  0.139  0.000  0.000  0.332
 
band    41 # energy   10.91984808 # occ.  0.00000000
 
ion      s     py     pz     px    dxy    dyz    dz2    dxz  x2-y2    tot
    1  0.002  0.000  0.053  0.000  0.000  0.000  0.002  0.000  0.000  0.057