CO adsorption on Ni(111)                
           1
     2.496087    0.000000    0.000000
    -1.248043    2.161675    0.000000
     0.000000    0.000000   18.342418
   Ni   C    O 
   5   1   1
Direct configuration=     1
   0.00000000  0.00000000  0.00000000
   0.33333333  0.66666667  0.11111111
   0.66666667  0.33333333  0.22222222
   0.00000000  0.00000000  0.33303913
   0.33333333  0.66666667  0.44454220
   0.33333333  0.66666667  0.54020250
   0.33333333  0.66666667  0.60315365
