 Default is to use a total of   4 processors:
                                4 via shared-memory
                                1 via Linda
 Entering Link 1 = d:\study\G09W\l1.exe PID=      5784.
  
 Copyright (c) 1988,1990,1992,1993,1995,1998,2003,2009,2013,
            Gaussian, Inc.  All Rights Reserved.
  
 This is part of the Gaussian(R) 09 program.  It is based on
 the Gaussian(R) 03 system (copyright 2003, Gaussian, Inc.),
 the Gaussian(R) 98 system (copyright 1998, Gaussian, Inc.),
 the Gaussian(R) 94 system (copyright 1995, Gaussian, Inc.),
 the Gaussian 92(TM) system (copyright 1992, Gaussian, Inc.),
 the Gaussian 90(TM) system (copyright 1990, Gaussian, Inc.),
 the Gaussian 88(TM) system (copyright 1988, Gaussian, Inc.),
 the Gaussian 86(TM) system (copyright 1986, Carnegie Mellon
 University), and the Gaussian 82(TM) system (copyright 1983,
 Carnegie Mellon University). Gaussian is a federally registered
 trademark of Gaussian, Inc.
  
 This software contains proprietary and confidential information,
 including trade secrets, belonging to Gaussian, Inc.
  
 This software is provided under written license and may be
 used, copied, transmitted, or stored only in accord with that
 written license.
  
 The following legend is applicable only to US Government
 contracts under FAR:
  
                    RESTRICTED RIGHTS LEGEND
  
 Use, reproduction and disclosure by the US Government is
 subject to restrictions as set forth in subparagraphs (a)
 and (c) of the Commercial Computer Software - Restricted
 Rights clause in FAR 52.227-19.
  
 Gaussian, Inc.
 340 Quinnipiac St., Bldg. 40, Wallingford CT 06492
  
  
 ---------------------------------------------------------------
 Warning -- This program may not be used in any manner that
 competes with the business of Gaussian, Inc. or will provide
 assistance to any competitor of Gaussian, Inc.  The licensee
 of this program is prohibited from giving any competitor of
 Gaussian, Inc. access to this program.  By using this program,
 the user acknowledges that Gaussian, Inc. is engaged in the
 business of creating and licensing software in the field of
 computational chemistry and represents and warrants to the
 licensee that it is not a competitor of Gaussian, Inc. and that
 it will not use this program in any manner prohibited above.
 ---------------------------------------------------------------
  

 Cite this work as:
 Gaussian 09, Revision D.01,
 M. J. Frisch, G. W. Trucks, H. B. Schlegel, G. E. Scuseria, 
 M. A. Robb, J. R. Cheeseman, G. Scalmani, V. Barone, B. Mennucci, 
 G. A. Petersson, H. Nakatsuji, M. Caricato, X. Li, H. P. Hratchian, 
 A. F. Izmaylov, J. Bloino, G. Zheng, J. L. Sonnenberg, M. Hada, 
 M. Ehara, K. Toyota, R. Fukuda, J. Hasegawa, M. Ishida, T. Nakajima, 
 Y. Honda, O. Kitao, H. Nakai, T. Vreven, J. A. Montgomery, Jr., 
 J. E. Peralta, F. Ogliaro, M. Bearpark, J. J. Heyd, E. Brothers, 
 K. N. Kudin, V. N. Staroverov, T. Keith, R. Kobayashi, J. Normand, 
 K. Raghavachari, A. Rendell, J. C. Burant, S. S. Iyengar, J. Tomasi, 
 M. Cossi, N. Rega, J. M. Millam, M. Klene, J. E. Knox, J. B. Cross, 
 V. Bakken, C. Adamo, J. Jaramillo, R. Gomperts, R. E. Stratmann, 
 O. Yazyev, A. J. Austin, R. Cammi, C. Pomelli, J. W. Ochterski, 
 R. L. Martin, K. Morokuma, V. G. Zakrzewski, G. A. Voth, 
 P. Salvador, J. J. Dannenberg, S. Dapprich, A. D. Daniels, 
 O. Farkas, J. B. Foresman, J. V. Ortiz, J. Cioslowski, 
 and D. J. Fox, Gaussian, Inc., Wallingford CT, 2013.
 
 ******************************************
 Gaussian 09:  IA32W-G09RevD.01 24-Apr-2013
                23-Dec-2015 
 ******************************************
 %chk=C:\gtest\CH3.chk
 -----------------------
 # b3lyp/6-31G* opt freq
 -----------------------
 1/14=-1,18=20,19=15,26=3,38=1/1,3;
 2/9=110,12=2,17=6,18=5,40=1/2;
 3/5=1,6=6,7=1,11=2,16=1,25=1,30=1,71=1,74=-5/1,2,3;
 4//1;
 5/5=2,38=5/2;
 6/7=2,8=2,9=2,10=2,28=1/1;
 7//1,2,3,16;
 1/14=-1,18=20,19=15,26=3/3(2);
 2/9=110/2;
 99//99;
 2/9=110/2;
 3/5=1,6=6,7=1,11=2,16=1,25=1,30=1,71=1,74=-5/1,2,3;
 4/5=5,16=3,69=1/1;
 5/5=2,38=5/2;
 7//1,2,3,16;
 1/14=-1,18=20,19=15,26=3/3(-5);
 2/9=110/2;
 6/7=2,8=2,9=2,10=2,19=2,28=1/1;
 99/9=1/99;
 ----------------
 B3LYP/TZVP opted
 ----------------
 Symbolic Z-matrix:
 Charge =  0 Multiplicity = 2
 C                     0.        0.        0. 
 H                     0.        1.07956   0. 
 H                    -0.93492  -0.53978   0. 
 H                     0.93492  -0.53978   0. 
 

 GradGradGradGradGradGradGradGradGradGradGradGradGradGradGradGradGradGrad
 Berny optimization.
 Initialization pass.
                           ----------------------------
                           !    Initial Parameters    !
                           ! (Angstroms and Degrees)  !
 --------------------------                            --------------------------
 ! Name  Definition              Value          Derivative Info.                !
 --------------------------------------------------------------------------------
 ! R1    R(1,2)                  1.0796         estimate D2E/DX2                !
 ! R2    R(1,3)                  1.0796         estimate D2E/DX2                !
 ! R3    R(1,4)                  1.0796         estimate D2E/DX2                !
 ! A1    A(2,1,3)              120.0            estimate D2E/DX2                !
 ! A2    A(2,1,4)              120.0            estimate D2E/DX2                !
 ! A3    A(3,1,4)              120.0            estimate D2E/DX2                !
 ! D1    D(2,1,4,3)            180.0            estimate D2E/DX2                !
 --------------------------------------------------------------------------------
 Trust Radius=3.00D-01 FncErr=1.00D-07 GrdErr=1.00D-06
 Number of steps in this run=     20 maximum allowed number of steps=    100.
 GradGradGradGradGradGradGradGradGradGradGradGradGradGradGradGradGradGrad

                          Input orientation:                          
 ---------------------------------------------------------------------
 Center     Atomic      Atomic             Coordinates (Angstroms)
 Number     Number       Type             X           Y           Z
 ---------------------------------------------------------------------
      1          6           0        0.000000    0.000000    0.000000
      2          1           0        0.000000    1.079558    0.000000
      3          1           0       -0.934925   -0.539779    0.000000
      4          1           0        0.934925   -0.539779    0.000000
 ---------------------------------------------------------------------
                    Distance matrix (angstroms):
                    1          2          3          4
     1  C    0.000000
     2  H    1.079558   0.000000
     3  H    1.079558   1.869849   0.000000
     4  H    1.079558   1.869849   1.869849   0.000000
 Stoichiometry    CH3(2)
 Framework group  D3H[O(C),3C2(H)]
 Deg. of freedom     1
 Full point group                 D3H     NOp  12
 Largest Abelian subgroup         C2V     NOp   4
 Largest concise Abelian subgroup C2      NOp   2
                         Standard orientation:                         
 ---------------------------------------------------------------------
 Center     Atomic      Atomic             Coordinates (Angstroms)
 Number     Number       Type             X           Y           Z
 ---------------------------------------------------------------------
      1          6           0        0.000000    0.000000    0.000000
      2          1           0        0.000000    1.079558    0.000000
      3          1           0       -0.934925   -0.539779    0.000000
      4          1           0        0.934925   -0.539779    0.000000
 ---------------------------------------------------------------------
 Rotational constants (GHZ):    286.8460235    286.8460235    143.4230117
 Standard basis: 6-31G(d) (6D, 7F)
 There are    12 symmetry adapted cartesian basis functions of A1  symmetry.
 There are     1 symmetry adapted cartesian basis functions of A2  symmetry.
 There are     5 symmetry adapted cartesian basis functions of B1  symmetry.
 There are     3 symmetry adapted cartesian basis functions of B2  symmetry.
 There are    12 symmetry adapted basis functions of A1  symmetry.
 There are     1 symmetry adapted basis functions of A2  symmetry.
 There are     5 symmetry adapted basis functions of B1  symmetry.
 There are     3 symmetry adapted basis functions of B2  symmetry.
    21 basis functions,    40 primitive gaussians,    21 cartesian basis functions
     5 alpha electrons        4 beta electrons
       nuclear repulsion energy         9.6722469438 Hartrees.
 NAtoms=    4 NActive=    4 NUniq=    2 SFac= 4.00D+00 NAtFMM=   60 NAOKFM=F Big=F
 Integral buffers will be    262144 words long.
 Raffenetti 2 integral format.
 Two-electron integral symmetry is turned on.
 One-electron integrals computed using PRISM.
 NBasis=    21 RedAO= T EigKep=  4.77D-02  NBF=    12     1     5     3
 NBsUse=    21 1.00D-06 EigRej= -1.00D+00 NBFU=    12     1     5     3
 ExpMin= 1.61D-01 ExpMax= 3.05D+03 ExpMxC= 4.57D+02 IAcc=1 IRadAn=         1 AccDes= 0.00D+00
 Harris functional with IExCor=  402 and IRadAn=       1 diagonalized for initial guess.
 HarFok:  IExCor=  402 AccDes= 0.00D+00 IRadAn=         1 IDoV= 1 UseB2=F ITyADJ=14
 ICtDFT=  3500011 ScaDFX=  1.000000  1.000000  1.000000  1.000000
 FoFCou: FMM=F IPFlag=           0 FMFlag=      100000 FMFlg1=           0
         NFxFlg=           0 DoJE=T BraDBF=F KetDBF=T FulRan=T
         wScrn=  0.000000 ICntrl=     500 IOpCl=  0 I1Cent=   200000004 NGrid=           0
         NMat0=    1 NMatS0=      1 NMatT0=    0 NMatD0=    1 NMtDS0=    0 NMtDT0=    0
 Petite list used in FoFCou.
 Initial guess orbital symmetries:
 Alpha Orbitals:
       Occupied  (A1') (A1') (E') (E') (A2")
       Virtual   (A1') (E') (E') (E') (E') (A2") (A1') (E') (E')
                 (A1') (E") (E") (A1') (E') (E') (A1')
 Beta  Orbitals:
       Occupied  (A1') (A1') (E') (E')
       Virtual   (A2") (A1') (E') (E') (E') (E') (A2") (A1') (E')
                 (E') (A1') (E") (E") (A1') (E') (E') (A1')
 The electronic state of the initial guess is 2-A2".
 Initial guess <Sx>= 0.0000 <Sy>= 0.0000 <Sz>= 0.5000 <S**2>= 0.7500 S= 0.5000
 Keep R1 and R2 ints in memory in symmetry-blocked form, NReq=903304.
 Requested convergence on RMS density matrix=1.00D-08 within 128 cycles.
 Requested convergence on MAX density matrix=1.00D-06.
 Requested convergence on             energy=1.00D-06.
 No special actions if energy rises.
 Integral accuracy reduced to 1.0D-05 until final iterations.
 Initial convergence to 1.0D-05 achieved.  Increase integral accuracy.
 SCF Done:  E(UB3LYP) =  -39.8382714837     A.U. after   10 cycles
            NFock= 10  Conv=0.47D-08     -V/T= 2.0098
 <Sx>= 0.0000 <Sy>= 0.0000 <Sz>= 0.5000 <S**2>= 0.7537 S= 0.5019
 <L.S>= 0.000000000000E+00
 Annihilation of the first spin contaminant:
 S**2 before annihilation     0.7537,   after     0.7500

 **********************************************************************

            Population analysis using the SCF density.

 **********************************************************************

 Orbital symmetries:
 Alpha Orbitals:
       Occupied  (A1') (A1') (E') (E') (A2")
       Virtual   (A1') (E') (E') (A2") (E') (E') (A1') (E') (E')
                 (A1') (E") (E") (A1') (E') (E') (A1')
 Beta  Orbitals:
       Occupied  (A1') (A1') (E') (E')
       Virtual   (A2") (A1') (E') (E') (E') (E') (A2") (A1') (E')
                 (E') (A1') (E") (E") (A1') (E') (E') (A1')
 The electronic state is 2-A2".
 Alpha  occ. eigenvalues --  -10.19062  -0.68206  -0.41709  -0.41709  -0.22425
 Alpha virt. eigenvalues --    0.11576   0.18296   0.18296   0.53702   0.54390
 Alpha virt. eigenvalues --    0.54390   0.68334   0.91707   0.91707   0.96053
 Alpha virt. eigenvalues --    1.64975   1.64975   2.01348   2.19052   2.19052
 Alpha virt. eigenvalues --    4.06849
  Beta  occ. eigenvalues --  -10.17653  -0.64144  -0.40742  -0.40742
  Beta virt. eigenvalues --   -0.04799   0.13180   0.18843   0.18843   0.55203
  Beta virt. eigenvalues --    0.55203   0.61549   0.71024   0.92201   0.92201
  Beta virt. eigenvalues --    0.98940   1.72127   1.72127   2.09970   2.20177
  Beta virt. eigenvalues --    2.20177   4.10632
          Condensed to atoms (all electrons):
               1          2          3          4
     1  C    5.343740   0.381553   0.381553   0.381553
     2  H    0.381553   0.515380  -0.029866  -0.029866
     3  H    0.381553  -0.029866   0.515380  -0.029866
     4  H    0.381553  -0.029866  -0.029866   0.515380
          Atomic-Atomic Spin Densities.
               1          2          3          4
     1  C    1.181995  -0.008866  -0.008866  -0.008866
     2  H   -0.008866  -0.044762   0.000914   0.000914
     3  H   -0.008866   0.000914  -0.044762   0.000914
     4  H   -0.008866   0.000914   0.000914  -0.044762
 Mulliken charges and spin densities:
               1          2
     1  C   -0.488398   1.155397
     2  H    0.162799  -0.051799
     3  H    0.162799  -0.051799
     4  H    0.162799  -0.051799
 Sum of Mulliken charges =   0.00000   1.00000
 Mulliken charges and spin densities with hydrogens summed into heavy atoms:
               1          2
     1  C    0.000000   1.000000
 Electronic spatial extent (au):  <R**2>=             29.3145
 Charge=              0.0000 electrons
 Dipole moment (field-independent basis, Debye):
    X=              0.0000    Y=              0.0000    Z=              0.0000  Tot=              0.0000
 Quadrupole moment (field-independent basis, Debye-Ang):
   XX=             -7.0028   YY=             -7.0028   ZZ=             -8.6298
   XY=              0.0000   XZ=              0.0000   YZ=              0.0000
 Traceless Quadrupole moment (field-independent basis, Debye-Ang):
   XX=              0.5423   YY=              0.5423   ZZ=             -1.0847
   XY=              0.0000   XZ=              0.0000   YZ=              0.0000
 Octapole moment (field-independent basis, Debye-Ang**2):
  XXX=              0.0000  YYY=              0.7906  ZZZ=              0.0000  XYY=              0.0000
  XXY=             -0.7906  XXZ=              0.0000  XZZ=              0.0000  YZZ=              0.0000
  YYZ=              0.0000  XYZ=              0.0000
 Hexadecapole moment (field-independent basis, Debye-Ang**3):
 XXXX=            -13.8708 YYYY=            -13.8708 ZZZZ=             -8.9594 XXXY=              0.0000
 XXXZ=              0.0000 YYYX=              0.0000 YYYZ=              0.0000 ZZZX=              0.0000
 ZZZY=              0.0000 XXYY=             -4.6236 XXZZ=             -4.1333 YYZZ=             -4.1333
 XXYZ=              0.0000 YYXZ=              0.0000 ZZXY=              0.0000
 N-N= 9.672246943754D+00 E-N=-1.111227385071D+02  KE= 3.945102816984D+01
 Symmetry A1   KE= 3.634392876157D+01
 Symmetry A2   KE= 1.236182980268D-33
 Symmetry B1   KE= 1.963639595147D+00
 Symmetry B2   KE= 1.143459813122D+00
                          Isotropic Fermi Contact Couplings
        Atom                 a.u.       MegaHertz       Gauss      10(-4) cm-1
     1  C(13)              0.10968     123.29621      43.99515      41.12719
     2  H(1)              -0.01584     -70.81090     -25.26709     -23.61997
     3  H(1)              -0.01584     -70.81090     -25.26709     -23.61997
     4  H(1)              -0.01584     -70.81090     -25.26709     -23.61997
 --------------------------------------------------------
       Center         ----  Spin Dipole Couplings  ----
                      3XX-RR        3YY-RR        3ZZ-RR
 --------------------------------------------------------
     1   Atom       -0.547514     -0.547514      1.095028
     2   Atom       -0.073571      0.078876     -0.005305
     3   Atom        0.040764     -0.035459     -0.005305
     4   Atom        0.040764     -0.035459     -0.005305
 --------------------------------------------------------
                        XY            XZ            YZ
 --------------------------------------------------------
     1   Atom        0.000000      0.000000      0.000000
     2   Atom        0.000000      0.000000      0.000000
     3   Atom        0.066012      0.000000      0.000000
     4   Atom       -0.066012      0.000000      0.000000
 --------------------------------------------------------


 ---------------------------------------------------------------------------------
              Anisotropic Spin Dipole Couplings in Principal Axis System
 ---------------------------------------------------------------------------------

       Atom             a.u.   MegaHertz   Gauss  10(-4) cm-1        Axes

              Baa    -0.5475   -73.471   -26.216   -24.507  0.9452 -0.3266  0.0000
     1 C(13)  Bbb    -0.5475   -73.471   -26.216   -24.507  0.3266  0.9452  0.0000
              Bcc     1.0950   146.942    52.433    49.015  0.0000  0.0000  1.0000
 
              Baa    -0.0736   -39.254   -14.007   -13.094  1.0000  0.0000  0.0000
     2 H(1)   Bbb    -0.0053    -2.831    -1.010    -0.944  0.0000  0.0000  1.0000
              Bcc     0.0789    42.085    15.017    14.038  0.0000  1.0000  0.0000
 
              Baa    -0.0736   -39.254   -14.007   -13.094 -0.5000  0.8660  0.0000
     3 H(1)   Bbb    -0.0053    -2.831    -1.010    -0.944  0.0000  0.0000  1.0000
              Bcc     0.0789    42.085    15.017    14.038  0.8660  0.5000  0.0000
 
              Baa    -0.0736   -39.254   -14.007   -13.094  0.5000  0.8660  0.0000
     4 H(1)   Bbb    -0.0053    -2.831    -1.010    -0.944  0.0000  0.0000  1.0000
              Bcc     0.0789    42.085    15.017    14.038  0.8660 -0.5000  0.0000
 

 ---------------------------------------------------------------------------------

 Calling FoFJK, ICntrl=      2127 FMM=F ISym2X=1 I1Cent= 0 IOpClX= 1 NMat=1 NMatS=1 NMatT=0.
 ***** Axes restored to original set *****
 -------------------------------------------------------------------
 Center     Atomic                   Forces (Hartrees/Bohr)
 Number     Number              X              Y              Z
 -------------------------------------------------------------------
      1        6           0.000000000    0.000000000    0.000000000
      2        1           0.000000000    0.002296049    0.000000000
      3        1          -0.001988437   -0.001148024    0.000000000
      4        1           0.001988437   -0.001148024    0.000000000
 -------------------------------------------------------------------
 Cartesian Forces:  Max     0.002296049 RMS     0.001148024

 GradGradGradGradGradGradGradGradGradGradGradGradGradGradGradGradGradGrad
 Berny optimization.
 FormGI is forming the generalized inverse of G from B-inverse, IUseBI=4.
 Internal  Forces:  Max     0.002296049 RMS     0.001503117
 Search for a local minimum.
 Step number   1 out of a maximum of   20
 All quantities printed in internal units (Hartrees-Bohrs-Radians)
 Mixed Optimization -- RFO/linear search
 Second derivative matrix not updated -- first step.
 The second derivative matrix:
                          R1        R2        R3        A1        A2
           R1           0.36048
           R2           0.00000   0.36048
           R3           0.00000   0.00000   0.36048
           A1           0.00000   0.00000   0.00000   0.16000
           A2           0.00000   0.00000   0.00000   0.00000   0.16000
           A3           0.00000   0.00000   0.00000   0.00000   0.00000
           D1           0.00000   0.00000   0.00000   0.00000   0.00000
                          A3        D1
           A3           0.16000
           D1           0.00000   0.00373
 ITU=  0
     Eigenvalues ---    0.00373   0.16000   0.16000   0.36048   0.36048
     Eigenvalues ---    0.36048
 RFO step:  Lambda=-4.38737711D-05 EMin= 3.72957702D-03
 Linear search not attempted -- first point.
 Iteration  1 RMS(Cart)=  0.00416928 RMS(Int)=  0.00000000
 Iteration  2 RMS(Cart)=  0.00000000 RMS(Int)=  0.00000000
 ClnCor:  largest displacement from symmetrization is 2.14D-13 for atom     1.
 Variable       Old X    -DE/DX   Delta X   Delta X   Delta X     New X
                                 (Linear)    (Quad)   (Total)
    R1        2.04007   0.00230   0.00000   0.00637   0.00637   2.04644
    R2        2.04007   0.00230   0.00000   0.00637   0.00637   2.04644
    R3        2.04007   0.00230   0.00000   0.00637   0.00637   2.04644
    A1        2.09440   0.00000   0.00000   0.00000   0.00000   2.09440
    A2        2.09440   0.00000   0.00000   0.00000   0.00000   2.09440
    A3        2.09440   0.00000   0.00000   0.00000   0.00000   2.09440
    D1        3.14159   0.00000   0.00000   0.00000   0.00000   3.14159
         Item               Value     Threshold  Converged?
 Maximum Force            0.002296     0.000450     NO 
 RMS     Force            0.001503     0.000300     NO 
 Maximum Displacement     0.006369     0.001800     NO 
 RMS     Displacement     0.004169     0.001200     NO 
 Predicted change in Energy=-2.193689D-05
 GradGradGradGradGradGradGradGradGradGradGradGradGradGradGradGradGradGrad

                          Input orientation:                          
 ---------------------------------------------------------------------
 Center     Atomic      Atomic             Coordinates (Angstroms)
 Number     Number       Type             X           Y           Z
 ---------------------------------------------------------------------
      1          6           0        0.000000    0.000000    0.000000
      2          1           0        0.000000    1.082928    0.000000
      3          1           0       -0.937843   -0.541464    0.000000
      4          1           0        0.937843   -0.541464    0.000000
 ---------------------------------------------------------------------
                    Distance matrix (angstroms):
                    1          2          3          4
     1  C    0.000000
     2  H    1.082928   0.000000
     3  H    1.082928   1.875687   0.000000
     4  H    1.082928   1.875687   1.875687   0.000000
 Stoichiometry    CH3(2)
 Framework group  D3H[O(C),3C2(H)]
 Deg. of freedom     1
 Full point group                 D3H     NOp  12
 Largest Abelian subgroup         C2V     NOp   4
 Largest concise Abelian subgroup C2      NOp   2
                         Standard orientation:                         
 ---------------------------------------------------------------------
 Center     Atomic      Atomic             Coordinates (Angstroms)
 Number     Number       Type             X           Y           Z
 ---------------------------------------------------------------------
      1          6           0        0.000000    0.000000    0.000000
      2          1           0        0.000000    1.082928    0.000000
      3          1           0       -0.937843   -0.541464    0.000000
      4          1           0        0.937843   -0.541464    0.000000
 ---------------------------------------------------------------------
 Rotational constants (GHZ):    285.0634242    285.0634242    142.5317121
 Standard basis: 6-31G(d) (6D, 7F)
 There are    12 symmetry adapted cartesian basis functions of A1  symmetry.
 There are     1 symmetry adapted cartesian basis functions of A2  symmetry.
 There are     5 symmetry adapted cartesian basis functions of B1  symmetry.
 There are     3 symmetry adapted cartesian basis functions of B2  symmetry.
 There are    12 symmetry adapted basis functions of A1  symmetry.
 There are     1 symmetry adapted basis functions of A2  symmetry.
 There are     5 symmetry adapted basis functions of B1  symmetry.
 There are     3 symmetry adapted basis functions of B2  symmetry.
    21 basis functions,    40 primitive gaussians,    21 cartesian basis functions
     5 alpha electrons        4 beta electrons
       nuclear repulsion energy         9.6421461054 Hartrees.
 NAtoms=    4 NActive=    4 NUniq=    2 SFac= 4.00D+00 NAtFMM=   60 NAOKFM=F Big=F
 Integral buffers will be    262144 words long.
 Raffenetti 2 integral format.
 Two-electron integral symmetry is turned on.
 One-electron integrals computed using PRISM.
 NBasis=    21 RedAO= T EigKep=  4.81D-02  NBF=    12     1     5     3
 NBsUse=    21 1.00D-06 EigRej= -1.00D+00 NBFU=    12     1     5     3
 Initial guess from the checkpoint file:  "C:\gtest\CH3.chk"
 B after Tr=     0.000000    0.000000    0.000000
         Rot=    1.000000    0.000000    0.000000    0.000000 Ang=   0.00 deg.
 Initial guess orbital symmetries:
 Alpha Orbitals:
       Occupied  (A1') (A1') (?A) (?A) (A2")
       Virtual   (?A) (?A) (?A) (?A) (?A) (?A) (?A) (?A) (?A) (E")
                 (?A) (?A) (?A) (?A) (E") (A2")
 Beta  Orbitals:
       Occupied  (A1') (A1') (?A) (?A)
       Virtual   (?A) (?A) (?A) (?A) (?A) (?A) (?A) (?A) (?A) (E")
                 (?A) (?A) (?A) (?A) (A2") (E") (A2")
 Initial guess <Sx>= 0.0000 <Sy>= 0.0000 <Sz>= 0.5000 <S**2>= 0.7538 S= 0.5019
 Keep R1 and R2 ints in memory in symmetry-blocked form, NReq=903304.
 Requested convergence on RMS density matrix=1.00D-08 within 128 cycles.
 Requested convergence on MAX density matrix=1.00D-06.
 Requested convergence on             energy=1.00D-06.
 No special actions if energy rises.
 SCF Done:  E(UB3LYP) =  -39.8382921477     A.U. after    7 cycles
            NFock=  7  Conv=0.25D-08     -V/T= 2.0102
 <Sx>= 0.0000 <Sy>= 0.0000 <Sz>= 0.5000 <S**2>= 0.7538 S= 0.5019
 <L.S>= 0.000000000000E+00
 Annihilation of the first spin contaminant:
 S**2 before annihilation     0.7538,   after     0.7500
 Calling FoFJK, ICntrl=      2127 FMM=F ISym2X=1 I1Cent= 0 IOpClX= 1 NMat=1 NMatS=1 NMatT=0.
 ***** Axes restored to original set *****
 -------------------------------------------------------------------
 Center     Atomic                   Forces (Hartrees/Bohr)
 Number     Number              X              Y              Z
 -------------------------------------------------------------------
      1        6           0.000000000    0.000000000    0.000000000
      2        1           0.000000000   -0.000125222    0.000000000
      3        1           0.000108445    0.000062611    0.000000000
      4        1          -0.000108445    0.000062611    0.000000000
 -------------------------------------------------------------------
 Cartesian Forces:  Max     0.000125222 RMS     0.000062611

 GradGradGradGradGradGradGradGradGradGradGradGradGradGradGradGradGradGrad
 Berny optimization.
 Using GEDIIS/GDIIS optimizer.
 FormGI is forming the generalized inverse of G from B-inverse, IUseBI=4.
 Internal  Forces:  Max     0.000125222 RMS     0.000081977
 Search for a local minimum.
 Step number   2 out of a maximum of   20
 All quantities printed in internal units (Hartrees-Bohrs-Radians)
 Mixed Optimization -- En-DIIS/RFO-DIIS
 Update second derivatives using D2CorX and points    1    2
 DE= -2.07D-05 DEPred=-2.19D-05 R= 9.42D-01
 TightC=F SS=  1.41D+00  RLast= 1.10D-02 DXNew= 5.0454D-01 3.3093D-02
 Trust test= 9.42D-01 RLast= 1.10D-02 DXMaxT set to 3.00D-01
 The second derivative matrix:
                          R1        R2        R3        A1        A2
           R1           0.36705
           R2           0.00657   0.36705
           R3           0.00657   0.00657   0.36705
           A1           0.00000   0.00000   0.00000   0.16000
           A2           0.00000   0.00000   0.00000   0.00000   0.16000
           A3           0.00000   0.00000   0.00000   0.00000   0.00000
           D1           0.00000   0.00000   0.00000   0.00000   0.00000
                          A3        D1
           A3           0.16000
           D1           0.00000   0.00373
 ITU=  1  0
 Use linear search instead of GDIIS.
     Eigenvalues ---    0.00373   0.16000   0.16000   0.36048   0.36048
     Eigenvalues ---    0.38018
 RFO step:  Lambda= 0.00000000D+00 EMin= 3.72957702D-03
 Quartic linear search produced a step of -0.05219.
 Iteration  1 RMS(Cart)=  0.00021760 RMS(Int)=  0.00000000
 Iteration  2 RMS(Cart)=  0.00000000 RMS(Int)=  0.00000000
 ClnCor:  largest displacement from symmetrization is 1.22D-14 for atom     3.
 Variable       Old X    -DE/DX   Delta X   Delta X   Delta X     New X
                                 (Linear)    (Quad)   (Total)
    R1        2.04644  -0.00013  -0.00033   0.00000  -0.00033   2.04611
    R2        2.04644  -0.00013  -0.00033   0.00000  -0.00033   2.04611
    R3        2.04644  -0.00013  -0.00033   0.00000  -0.00033   2.04611
    A1        2.09440   0.00000   0.00000   0.00000   0.00000   2.09440
    A2        2.09440   0.00000   0.00000   0.00000   0.00000   2.09440
    A3        2.09440   0.00000   0.00000   0.00000   0.00000   2.09440
    D1        3.14159   0.00000   0.00000   0.00000   0.00000   3.14159
         Item               Value     Threshold  Converged?
 Maximum Force            0.000125     0.000450     YES
 RMS     Force            0.000082     0.000300     YES
 Maximum Displacement     0.000332     0.001800     YES
 RMS     Displacement     0.000218     0.001200     YES
 Predicted change in Energy=-6.186159D-08
 Optimization completed.
    -- Stationary point found.
                           ----------------------------
                           !   Optimized Parameters   !
                           ! (Angstroms and Degrees)  !
 --------------------------                            --------------------------
 ! Name  Definition              Value          Derivative Info.                !
 --------------------------------------------------------------------------------
 ! R1    R(1,2)                  1.0829         -DE/DX =   -0.0001              !
 ! R2    R(1,3)                  1.0829         -DE/DX =   -0.0001              !
 ! R3    R(1,4)                  1.0829         -DE/DX =   -0.0001              !
 ! A1    A(2,1,3)              120.0            -DE/DX =    0.0                 !
 ! A2    A(2,1,4)              120.0            -DE/DX =    0.0                 !
 ! A3    A(3,1,4)              120.0            -DE/DX =    0.0                 !
 ! D1    D(2,1,4,3)            180.0            -DE/DX =    0.0                 !
 --------------------------------------------------------------------------------
 GradGradGradGradGradGradGradGradGradGradGradGradGradGradGradGradGradGrad

                          Input orientation:                          
 ---------------------------------------------------------------------
 Center     Atomic      Atomic             Coordinates (Angstroms)
 Number     Number       Type             X           Y           Z
 ---------------------------------------------------------------------
      1          6           0        0.000000    0.000000    0.000000
      2          1           0        0.000000    1.082928    0.000000
      3          1           0       -0.937843   -0.541464    0.000000
      4          1           0        0.937843   -0.541464    0.000000
 ---------------------------------------------------------------------
                    Distance matrix (angstroms):
                    1          2          3          4
     1  C    0.000000
     2  H    1.082928   0.000000
     3  H    1.082928   1.875687   0.000000
     4  H    1.082928   1.875687   1.875687   0.000000
 Stoichiometry    CH3(2)
 Framework group  D3H[O(C),3C2(H)]
 Deg. of freedom     1
 Full point group                 D3H     NOp  12
 Largest Abelian subgroup         C2V     NOp   4
 Largest concise Abelian subgroup C2      NOp   2
                         Standard orientation:                         
 ---------------------------------------------------------------------
 Center     Atomic      Atomic             Coordinates (Angstroms)
 Number     Number       Type             X           Y           Z
 ---------------------------------------------------------------------
      1          6           0        0.000000    0.000000    0.000000
      2          1           0        0.000000    1.082928    0.000000
      3          1           0       -0.937843   -0.541464    0.000000
      4          1           0        0.937843   -0.541464    0.000000
 ---------------------------------------------------------------------
 Rotational constants (GHZ):    285.0634242    285.0634242    142.5317121

 **********************************************************************

            Population analysis using the SCF density.

 **********************************************************************

 Orbital symmetries:
 Alpha Orbitals:
       Occupied  (A1') (A1') (?A) (?A) (A2")
       Virtual   (A1') (?A) (?A) (A2") (?A) (?A) (A1') (?A) (?A)
                 (A1') (E") (E") (A1') (?A) (?A) (A1')
 Beta  Orbitals:
       Occupied  (A1') (A1') (?A) (?A)
       Virtual   (A2") (A1') (?A) (?A) (?A) (?A) (A2") (A1') (?A)
                 (?A) (A1') (E") (E") (A1') (?A) (?A) (A1')
 Unable to determine electronic state:  an orbital has unidentified symmetry.
 Alpha  occ. eigenvalues --  -10.19161  -0.68117  -0.41638  -0.41638  -0.22427
 Alpha virt. eigenvalues --    0.11453   0.18198   0.18198   0.53683   0.54503
 Alpha virt. eigenvalues --    0.54503   0.68300   0.91420   0.91420   0.95790
 Alpha virt. eigenvalues --    1.65013   1.65013   2.01049   2.18652   2.18652
 Alpha virt. eigenvalues --    4.06643
  Beta  occ. eigenvalues --  -10.17750  -0.64049  -0.40674  -0.40674
  Beta virt. eigenvalues --   -0.04794   0.13066   0.18750   0.18750   0.55318
  Beta virt. eigenvalues --    0.55318   0.61532   0.70959   0.91907   0.91907
  Beta virt. eigenvalues --    0.98670   1.72174   1.72174   2.09695   2.19779
  Beta virt. eigenvalues --    2.19779   4.10429
          Condensed to atoms (all electrons):
               1          2          3          4
     1  C    5.344766   0.380919   0.380919   0.380919
     2  H    0.380919   0.516073  -0.029750  -0.029750
     3  H    0.380919  -0.029750   0.516073  -0.029750
     4  H    0.380919  -0.029750  -0.029750   0.516073
          Atomic-Atomic Spin Densities.
               1          2          3          4
     1  C    1.182419  -0.008874  -0.008874  -0.008874
     2  H   -0.008874  -0.044897   0.000920   0.000920
     3  H   -0.008874   0.000920  -0.044897   0.000920
     4  H   -0.008874   0.000920   0.000920  -0.044897
 Mulliken charges and spin densities:
               1          2
     1  C   -0.487523   1.155796
     2  H    0.162508  -0.051932
     3  H    0.162508  -0.051932
     4  H    0.162508  -0.051932
 Sum of Mulliken charges =   0.00000   1.00000
 Mulliken charges and spin densities with hydrogens summed into heavy atoms:
               1          2
     1  C    0.000000   1.000000
 Electronic spatial extent (au):  <R**2>=             29.4058
 Charge=              0.0000 electrons
 Dipole moment (field-independent basis, Debye):
    X=              0.0000    Y=              0.0000    Z=              0.0000  Tot=              0.0000
 Quadrupole moment (field-independent basis, Debye-Ang):
   XX=             -7.0060   YY=             -7.0060   ZZ=             -8.6413
   XY=              0.0000   XZ=              0.0000   YZ=              0.0000
 Traceless Quadrupole moment (field-independent basis, Debye-Ang):
   XX=              0.5451   YY=              0.5451   ZZ=             -1.0902
   XY=              0.0000   XZ=              0.0000   YZ=              0.0000
 Octapole moment (field-independent basis, Debye-Ang**2):
  XXX=              0.0000  YYY=              0.7999  ZZZ=              0.0000  XYY=              0.0000
  XXY=             -0.7999  XXZ=              0.0000  XZZ=              0.0000  YZZ=              0.0000
  YYZ=              0.0000  XYZ=              0.0000
 Hexadecapole moment (field-independent basis, Debye-Ang**3):
 XXXX=            -13.9350 YYYY=            -13.9350 ZZZZ=             -8.9754 XXXY=              0.0000
 XXXZ=              0.0000 YYYX=              0.0000 YYYZ=              0.0000 ZZZX=              0.0000
 ZZZY=              0.0000 XXYY=             -4.6450 XXZZ=             -4.1508 YYZZ=             -4.1508
 XXYZ=              0.0000 YYXZ=              0.0000 ZZXY=              0.0000
 N-N= 9.642146105438D+00 E-N=-1.110536968254D+02  KE= 3.943743437406D+01
 Symmetry A1   KE= 3.633537494168D+01
 Symmetry A2   KE= 3.960444845461D-34
 Symmetry B1   KE= 1.958306828141D+00
 Symmetry B2   KE= 1.143752604240D+00
                          Isotropic Fermi Contact Couplings
        Atom                 a.u.       MegaHertz       Gauss      10(-4) cm-1
     1  C(13)              0.11054     124.27292      44.34367      41.45298
     2  H(1)              -0.01588     -70.98996     -25.33098     -23.67970
     3  H(1)              -0.01588     -70.98996     -25.33098     -23.67970
     4  H(1)              -0.01588     -70.98996     -25.33098     -23.67970
 --------------------------------------------------------
       Center         ----  Spin Dipole Couplings  ----
                      3XX-RR        3YY-RR        3ZZ-RR
 --------------------------------------------------------
     1   Atom       -0.547595     -0.547595      1.095190
     2   Atom       -0.073149      0.078732     -0.005584
     3   Atom        0.040762     -0.035178     -0.005584
     4   Atom        0.040762     -0.035178     -0.005584
 --------------------------------------------------------
                        XY            XZ            YZ
 --------------------------------------------------------
     1   Atom        0.000000      0.000000      0.000000
     2   Atom        0.000000      0.000000      0.000000
     3   Atom        0.065766      0.000000      0.000000
     4   Atom       -0.065766      0.000000      0.000000
 --------------------------------------------------------


 ---------------------------------------------------------------------------------
              Anisotropic Spin Dipole Couplings in Principal Axis System
 ---------------------------------------------------------------------------------

       Atom             a.u.   MegaHertz   Gauss  10(-4) cm-1        Axes

              Baa    -0.5476   -73.482   -26.220   -24.511  0.9149  0.4038  0.0000
     1 C(13)  Bbb    -0.5476   -73.482   -26.220   -24.511 -0.4038  0.9149  0.0000
              Bcc     1.0952   146.964    52.440    49.022  0.0000  0.0000  1.0000
 
              Baa    -0.0731   -39.029   -13.926   -13.019  1.0000  0.0000  0.0000
     2 H(1)   Bbb    -0.0056    -2.979    -1.063    -0.994  0.0000  0.0000  1.0000
              Bcc     0.0787    42.008    14.989    14.012  0.0000  1.0000  0.0000
 
              Baa    -0.0731   -39.029   -13.926   -13.019 -0.5000  0.8660  0.0000
     3 H(1)   Bbb    -0.0056    -2.979    -1.063    -0.994  0.0000  0.0000  1.0000
              Bcc     0.0787    42.008    14.989    14.012  0.8660  0.5000  0.0000
 
              Baa    -0.0731   -39.029   -13.926   -13.019  0.5000  0.8660  0.0000
     4 H(1)   Bbb    -0.0056    -2.979    -1.063    -0.994  0.0000  0.0000  1.0000
              Bcc     0.0787    42.008    14.989    14.012  0.8660 -0.5000  0.0000
 

 ---------------------------------------------------------------------------------

 1|1|UNPC-X500|FOpt|UB3LYP|6-31G(d)|C1H3(2)|SOBEREVA|23-Dec-2015|0||# b
 3lyp/6-31G* opt freq||B3LYP/TZVP opted||0,2|C,0.,0.,0.|H,0.0000000014,
 1.0829281627,0.|H,-0.9378433001,-0.5414640801,0.|H,0.9378432986,-0.541
 4640826,0.||Version=IA32W-G09RevD.01|HF=-39.8382921|S2=0.753767|S2-1=0
 .|S2A=0.750007|RMSD=2.525e-009|RMSF=6.261e-005|Dipole=0.,0.,0.|Quadrup
 ole=0.4052842,0.4052842,-0.8105684,0.,0.,0.|PG=D03H [O(C1),3C2(H1)]||@


 SUCCESS IS NEVER CERTAIN,
 FAILURE IS NEVER FINAL.
 Job cpu time:       0 days  0 hours  0 minutes  3.0 seconds.
 File lengths (MBytes):  RWF=      5 Int=      0 D2E=      0 Chk=      1 Scr=      1
 Normal termination of Gaussian 09 at Wed Dec 23 10:32:40 2015.
 Link1:  Proceeding to internal job step number  2.
 --------------------------------------------------------------------
 #N Geom=AllCheck Guess=TCheck SCRF=Check GenChk UB3LYP/6-31G(d) Freq
 --------------------------------------------------------------------
 1/10=4,29=7,30=1,38=1,40=1/1,3;
 2/12=2,40=1/2;
 3/5=1,6=6,7=1,11=2,14=-4,16=1,25=1,30=1,70=2,71=2,74=-5,116=2,140=1/1,2,3;
 4/5=101/1;
 5/5=2,98=1/2;
 8/6=4,10=90,11=11/1;
 11/6=1,8=1,9=11,15=111,16=1/1,2,10;
 10/6=1/2;
 6/7=2,8=2,9=2,10=2,18=1,28=1/1;
 7/8=1,10=1,25=1/1,2,3,16;
 1/10=4,30=1/3;
 99//99;
 Structure from the checkpoint file:  "C:\gtest\CH3.chk"
 ----------------
 B3LYP/TZVP opted
 ----------------
 Charge =  0 Multiplicity = 2
 Redundant internal coordinates found in file.
 C,0,0.,0.,0.
 H,0,0.0000000014,1.0829281627,0.
 H,0,-0.9378433001,-0.5414640801,0.
 H,0,0.9378432986,-0.5414640826,0.
 Recover connectivity data from disk.

 GradGradGradGradGradGradGradGradGradGradGradGradGradGradGradGradGradGrad
 Berny optimization.
 Initialization pass.
                           ----------------------------
                           !    Initial Parameters    !
                           ! (Angstroms and Degrees)  !
 --------------------------                            --------------------------
 ! Name  Definition              Value          Derivative Info.                !
 --------------------------------------------------------------------------------
 ! R1    R(1,2)                  1.0829         calculate D2E/DX2 analytically  !
 ! R2    R(1,3)                  1.0829         calculate D2E/DX2 analytically  !
 ! R3    R(1,4)                  1.0829         calculate D2E/DX2 analytically  !
 ! A1    A(2,1,3)              120.0            calculate D2E/DX2 analytically  !
 ! A2    A(2,1,4)              120.0            calculate D2E/DX2 analytically  !
 ! A3    A(3,1,4)              120.0            calculate D2E/DX2 analytically  !
 ! D1    D(2,1,4,3)            180.0            calculate D2E/DX2 analytically  !
 --------------------------------------------------------------------------------
 Trust Radius=3.00D-01 FncErr=1.00D-07 GrdErr=1.00D-07
 Number of steps in this run=      2 maximum allowed number of steps=      2.
 GradGradGradGradGradGradGradGradGradGradGradGradGradGradGradGradGradGrad

                          Input orientation:                          
 ---------------------------------------------------------------------
 Center     Atomic      Atomic             Coordinates (Angstroms)
 Number     Number       Type             X           Y           Z
 ---------------------------------------------------------------------
      1          6           0        0.000000    0.000000    0.000000
      2          1           0        0.000000    1.082928    0.000000
      3          1           0       -0.937843   -0.541464    0.000000
      4          1           0        0.937843   -0.541464    0.000000
 ---------------------------------------------------------------------
                    Distance matrix (angstroms):
                    1          2          3          4
     1  C    0.000000
     2  H    1.082928   0.000000
     3  H    1.082928   1.875687   0.000000
     4  H    1.082928   1.875687   1.875687   0.000000
 Stoichiometry    CH3(2)
 Framework group  D3H[O(C),3C2(H)]
 Deg. of freedom     1
 Full point group                 D3H     NOp  12
 Largest Abelian subgroup         C2V     NOp   4
 Largest concise Abelian subgroup C2      NOp   2
                         Standard orientation:                         
 ---------------------------------------------------------------------
 Center     Atomic      Atomic             Coordinates (Angstroms)
 Number     Number       Type             X           Y           Z
 ---------------------------------------------------------------------
      1          6           0        0.000000    0.000000    0.000000
      2          1           0        0.000000    1.082928    0.000000
      3          1           0       -0.937843   -0.541464    0.000000
      4          1           0        0.937843   -0.541464    0.000000
 ---------------------------------------------------------------------
 Rotational constants (GHZ):    285.0634242    285.0634242    142.5317121
 Standard basis: 6-31G(d) (6D, 7F)
 There are    12 symmetry adapted cartesian basis functions of A1  symmetry.
 There are     1 symmetry adapted cartesian basis functions of A2  symmetry.
 There are     5 symmetry adapted cartesian basis functions of B1  symmetry.
 There are     3 symmetry adapted cartesian basis functions of B2  symmetry.
 There are    12 symmetry adapted basis functions of A1  symmetry.
 There are     1 symmetry adapted basis functions of A2  symmetry.
 There are     5 symmetry adapted basis functions of B1  symmetry.
 There are     3 symmetry adapted basis functions of B2  symmetry.
    21 basis functions,    40 primitive gaussians,    21 cartesian basis functions
     5 alpha electrons        4 beta electrons
       nuclear repulsion energy         9.6421461054 Hartrees.
 NAtoms=    4 NActive=    4 NUniq=    2 SFac= 4.00D+00 NAtFMM=   60 NAOKFM=F Big=F
 Integral buffers will be    262144 words long.
 Raffenetti 2 integral format.
 Two-electron integral symmetry is turned on.
 One-electron integrals computed using PRISM.
 NBasis=    21 RedAO= T EigKep=  4.81D-02  NBF=    12     1     5     3
 NBsUse=    21 1.00D-06 EigRej= -1.00D+00 NBFU=    12     1     5     3
 Initial guess from the checkpoint file:  "C:\gtest\CH3.chk"
 B after Tr=     0.000000    0.000000    0.000000
         Rot=    1.000000    0.000000    0.000000    0.000000 Ang=   0.00 deg.
 Initial guess orbital symmetries:
 Alpha Orbitals:
       Occupied  (A1') (A1') (?A) (?A) (A2")
       Virtual   (A1') (?A) (?A) (A2") (?A) (?A) (A1') (?A) (?A)
                 (A1') (E") (E") (A1') (?A) (?A) (A1')
 Beta  Orbitals:
       Occupied  (A1') (A1') (?A) (?A)
       Virtual   (A2") (A1') (?A) (?A) (?A) (?A) (A2") (A1') (?A)
                 (?A) (A1') (E") (E") (A1') (?A) (?A) (A1')
 Initial guess <Sx>= 0.0000 <Sy>= 0.0000 <Sz>= 0.5000 <S**2>= 0.7538 S= 0.5019
 Keep R1 and R2 ints in memory in symmetry-blocked form, NReq=903304.
 Requested convergence on RMS density matrix=1.00D-08 within 128 cycles.
 Requested convergence on MAX density matrix=1.00D-06.
 Requested convergence on             energy=1.00D-06.
 No special actions if energy rises.
 Skip diagonalization as Alpha Fock matrix is already diagonal.
 Skip diagonalization as Beta Fock matrix is already diagonal.
 SCF Done:  E(UB3LYP) =  -39.8382921477     A.U. after    1 cycles
            NFock=  1  Conv=0.99D-18     -V/T= 2.0102
 <Sx>= 0.0000 <Sy>= 0.0000 <Sz>= 0.5000 <S**2>= 0.7538 S= 0.5019
 <L.S>= 0.000000000000E+00
 Annihilation of the first spin contaminant:
 S**2 before annihilation     0.7538,   after     0.7500
 DoSCS=F DFT=T ScalE2(SS,OS)=  1.000000  1.000000
 Range of M.O.s used for correlation:     1    21
 NBasis=    21 NAE=     5 NBE=     4 NFC=     0 NFV=     0
 NROrb=     21 NOA=     5 NOB=     4 NVA=    16 NVB=    17
 Symmetrizing basis deriv contribution to polar:
 IMax=3 JMax=2 DiffMx= 0.00D+00
 G2DrvN: will do     5 centers at a time, making    1 passes.
 Calling FoFCou, ICntrl=  3107 FMM=F I1Cent=   0 AccDes= 0.00D+00.
 End of G2Drv F.D. properties file   721 does not exist.
 End of G2Drv F.D. properties file   722 does not exist.
 End of G2Drv F.D. properties file   788 does not exist.
          IDoAtm=1111
          Differentiating once with respect to electric field.
                with respect to dipole field.
          Differentiating once with respect to nuclear coordinates.
 Keep R1 and R2 ints in memory in symmetry-blocked form, NReq=882694.
          There are     9 degrees of freedom in the 1st order CPHF.  IDoFFX=4 NUNeed=     9.
      9 vectors produced by pass  0 Test12= 1.64D-15 1.11D-08 XBig12= 1.11D+01 1.53D+00.
 AX will form     9 AO Fock derivatives at one time.
      9 vectors produced by pass  1 Test12= 1.64D-15 1.11D-08 XBig12= 2.15D-01 3.25D-01.
      9 vectors produced by pass  2 Test12= 1.64D-15 1.11D-08 XBig12= 5.97D-04 1.94D-02.
      9 vectors produced by pass  3 Test12= 1.64D-15 1.11D-08 XBig12= 1.35D-06 5.52D-04.
      9 vectors produced by pass  4 Test12= 1.64D-15 1.11D-08 XBig12= 2.67D-08 7.34D-05.
      7 vectors produced by pass  5 Test12= 1.64D-15 1.11D-08 XBig12= 7.41D-11 4.86D-06.
      2 vectors produced by pass  6 Test12= 1.64D-15 1.11D-08 XBig12= 1.80D-13 1.57D-07.
 InvSVY:  IOpt=1 It=  1 EMax= 8.88D-16
 Solved reduced A of dimension    54 with     9 vectors.
 Isotropic polarizability for W=    0.000000        9.60 Bohr**3.
 End of Minotr F.D. properties file   721 does not exist.
 End of Minotr F.D. properties file   722 does not exist.
 End of Minotr F.D. properties file   788 does not exist.

 **********************************************************************

            Population analysis using the SCF density.

 **********************************************************************

 Orbital symmetries:
 Alpha Orbitals:
       Occupied  (A1') (A1') (?A) (?A) (A2")
       Virtual   (A1') (?A) (?A) (A2") (?A) (?A) (A1') (?A) (?A)
                 (A1') (E") (E") (A1') (?A) (?A) (A1')
 Beta  Orbitals:
       Occupied  (A1') (A1') (?A) (?A)
       Virtual   (A2") (A1') (?A) (?A) (?A) (?A) (A2") (A1') (?A)
                 (?A) (A1') (E") (E") (A1') (?A) (?A) (A1')
 Unable to determine electronic state:  an orbital has unidentified symmetry.
 Alpha  occ. eigenvalues --  -10.19161  -0.68117  -0.41638  -0.41638  -0.22427
 Alpha virt. eigenvalues --    0.11453   0.18198   0.18198   0.53683   0.54503
 Alpha virt. eigenvalues --    0.54503   0.68300   0.91420   0.91420   0.95790
 Alpha virt. eigenvalues --    1.65013   1.65013   2.01049   2.18652   2.18652
 Alpha virt. eigenvalues --    4.06643
  Beta  occ. eigenvalues --  -10.17750  -0.64049  -0.40674  -0.40674
  Beta virt. eigenvalues --   -0.04794   0.13066   0.18750   0.18750   0.55318
  Beta virt. eigenvalues --    0.55318   0.61532   0.70959   0.91907   0.91907
  Beta virt. eigenvalues --    0.98670   1.72174   1.72174   2.09695   2.19779
  Beta virt. eigenvalues --    2.19779   4.10429
          Condensed to atoms (all electrons):
               1          2          3          4
     1  C    5.344766   0.380919   0.380919   0.380919
     2  H    0.380919   0.516073  -0.029750  -0.029750
     3  H    0.380919  -0.029750   0.516073  -0.029750
     4  H    0.380919  -0.029750  -0.029750   0.516073
          Atomic-Atomic Spin Densities.
               1          2          3          4
     1  C    1.182419  -0.008874  -0.008874  -0.008874
     2  H   -0.008874  -0.044897   0.000920   0.000920
     3  H   -0.008874   0.000920  -0.044897   0.000920
     4  H   -0.008874   0.000920   0.000920  -0.044897
 Mulliken charges and spin densities:
               1          2
     1  C   -0.487523   1.155796
     2  H    0.162508  -0.051932
     3  H    0.162508  -0.051932
     4  H    0.162508  -0.051932
 Sum of Mulliken charges =   0.00000   1.00000
 Mulliken charges and spin densities with hydrogens summed into heavy atoms:
               1          2
     1  C    0.000000   1.000000
 APT charges:
               1
     1  C   -0.124698
     2  H    0.041571
     3  H    0.041567
     4  H    0.041567
 Sum of APT charges =   0.00001
 APT charges with hydrogens summed into heavy atoms:
               1
     1  C    0.000008
 Electronic spatial extent (au):  <R**2>=             29.4058
 Charge=              0.0000 electrons
 Dipole moment (field-independent basis, Debye):
    X=              0.0000    Y=              0.0000    Z=              0.0000  Tot=              0.0000
 Quadrupole moment (field-independent basis, Debye-Ang):
   XX=             -7.0060   YY=             -7.0060   ZZ=             -8.6413
   XY=              0.0000   XZ=              0.0000   YZ=              0.0000
 Traceless Quadrupole moment (field-independent basis, Debye-Ang):
   XX=              0.5451   YY=              0.5451   ZZ=             -1.0902
   XY=              0.0000   XZ=              0.0000   YZ=              0.0000
 Octapole moment (field-independent basis, Debye-Ang**2):
  XXX=              0.0000  YYY=              0.7999  ZZZ=              0.0000  XYY=              0.0000
  XXY=             -0.7999  XXZ=              0.0000  XZZ=              0.0000  YZZ=              0.0000
  YYZ=              0.0000  XYZ=              0.0000
 Hexadecapole moment (field-independent basis, Debye-Ang**3):
 XXXX=            -13.9350 YYYY=            -13.9350 ZZZZ=             -8.9754 XXXY=              0.0000
 XXXZ=              0.0000 YYYX=              0.0000 YYYZ=              0.0000 ZZZX=              0.0000
 ZZZY=              0.0000 XXYY=             -4.6450 XXZZ=             -4.1508 YYZZ=             -4.1508
 XXYZ=              0.0000 YYXZ=              0.0000 ZZXY=              0.0000
 N-N= 9.642146105438D+00 E-N=-1.110536968254D+02  KE= 3.943743437406D+01
 Symmetry A1   KE= 3.633537494167D+01
 Symmetry A2   KE= 3.960444845461D-34
 Symmetry B1   KE= 1.958306828141D+00
 Symmetry B2   KE= 1.143752604240D+00
  Exact polarizability:  11.878   0.000  11.879   0.000   0.000   5.052
 Approx polarizability:  13.799   0.000  13.799   0.000   0.000   5.875
                          Isotropic Fermi Contact Couplings
        Atom                 a.u.       MegaHertz       Gauss      10(-4) cm-1
     1  C(13)              0.11054     124.27292      44.34367      41.45298
     2  H(1)              -0.01588     -70.98996     -25.33098     -23.67970
     3  H(1)              -0.01588     -70.98996     -25.33098     -23.67970
     4  H(1)              -0.01588     -70.98996     -25.33098     -23.67970
 --------------------------------------------------------
       Center         ----  Spin Dipole Couplings  ----
                      3XX-RR        3YY-RR        3ZZ-RR
 --------------------------------------------------------
     1   Atom       -0.547595     -0.547595      1.095190
     2   Atom       -0.073149      0.078732     -0.005584
     3   Atom        0.040762     -0.035178     -0.005584
     4   Atom        0.040762     -0.035178     -0.005584
 --------------------------------------------------------
                        XY            XZ            YZ
 --------------------------------------------------------
     1   Atom        0.000000      0.000000      0.000000
     2   Atom        0.000000      0.000000      0.000000
     3   Atom        0.065766      0.000000      0.000000
     4   Atom       -0.065766      0.000000      0.000000
 --------------------------------------------------------


 ---------------------------------------------------------------------------------
              Anisotropic Spin Dipole Couplings in Principal Axis System
 ---------------------------------------------------------------------------------

       Atom             a.u.   MegaHertz   Gauss  10(-4) cm-1        Axes

              Baa    -0.5476   -73.482   -26.220   -24.511  0.9098  0.4150  0.0000
     1 C(13)  Bbb    -0.5476   -73.482   -26.220   -24.511 -0.4150  0.9098  0.0000
              Bcc     1.0952   146.964    52.440    49.022  0.0000  0.0000  1.0000
 
              Baa    -0.0731   -39.029   -13.926   -13.019  1.0000  0.0000  0.0000
     2 H(1)   Bbb    -0.0056    -2.979    -1.063    -0.994  0.0000  0.0000  1.0000
              Bcc     0.0787    42.008    14.989    14.012  0.0000  1.0000  0.0000
 
              Baa    -0.0731   -39.029   -13.926   -13.019 -0.5000  0.8660  0.0000
     3 H(1)   Bbb    -0.0056    -2.979    -1.063    -0.994  0.0000  0.0000  1.0000
              Bcc     0.0787    42.008    14.989    14.012  0.8660  0.5000  0.0000
 
              Baa    -0.0731   -39.029   -13.926   -13.019  0.5000  0.8660  0.0000
     4 H(1)   Bbb    -0.0056    -2.979    -1.063    -0.994  0.0000  0.0000  1.0000
              Bcc     0.0787    42.008    14.989    14.012  0.8660 -0.5000  0.0000
 

 ---------------------------------------------------------------------------------

 Calling FoFJK, ICntrl=    100127 FMM=F ISym2X=1 I1Cent= 0 IOpClX= 1 NMat=1 NMatS=1 NMatT=0.
 Full mass-weighted force constant matrix:
 Low frequencies ---   -0.9494   -0.0662   -0.0050   38.6637   38.6751   42.1566
 Low frequencies ---  454.8002 1431.3797 1431.3814
 Diagonal vibrational polarizability:
        0.0487028       0.0487135      11.6686994
 Harmonic frequencies (cm**-1), IR intensities (KM/Mole), Raman scattering
 activities (A**4/AMU), depolarization ratios for plane and unpolarized
 incident light, reduced masses (AMU), force constants (mDyne/A),
 and normal coordinates:
                      1                      2                      3
                     A2"                    ?A                     ?A
 Frequencies --    454.8002              1431.3797              1431.3814
 Red. masses --      1.2356                 1.1020                 1.1020
 Frc consts  --      0.1506                 1.3302                 1.3302
 IR Inten    --     89.6872                 2.3058                 2.3050
  Atom  AN      X      Y      Z        X      Y      Z        X      Y      Z
     1   6     0.00   0.00   0.14     0.00   0.09   0.00    -0.09   0.00   0.00
     2   1     0.00   0.00  -0.57     0.00   0.07   0.00     0.81   0.00   0.00
     3   1     0.00   0.00  -0.57     0.38  -0.59   0.00     0.15  -0.38   0.00
     4   1     0.00   0.00  -0.57    -0.38  -0.59   0.00     0.15   0.38   0.00
                      4                      5                      6
                     ?B                     ?A                     ?A
 Frequencies --   3142.1262              3316.6598              3316.6607
 Red. masses --      1.0078                 1.1185                 1.1185
 Frc consts  --      5.8625                 7.2489                 7.2490
 IR Inten    --      0.0000                 7.5325                 7.5324
  Atom  AN      X      Y      Z        X      Y      Z        X      Y      Z
     1   6     0.00   0.00   0.00     0.10   0.00   0.00     0.00   0.10   0.00
     2   1     0.00  -0.58   0.00     0.02   0.00   0.00     0.00  -0.81   0.00
     3   1     0.50   0.29   0.00    -0.61  -0.36   0.00    -0.36  -0.19   0.00
     4   1    -0.50   0.29   0.00    -0.61   0.36   0.00     0.36  -0.19   0.00

 -------------------
 - Thermochemistry -
 -------------------
 Temperature   298.150 Kelvin.  Pressure   1.00000 Atm.
 Atom     1 has atomic number  6 and mass  12.00000
 Atom     2 has atomic number  1 and mass   1.00783
 Atom     3 has atomic number  1 and mass   1.00783
 Atom     4 has atomic number  1 and mass   1.00783
 Molecular mass:    15.02348 amu.
 Principal axes and moments of inertia in atomic units:
                           1         2         3
     Eigenvalues --     6.33102   6.33102  12.66203
           X            0.54491   0.83849   0.00000
           Y            0.83849  -0.54491   0.00000
           Z            0.00000   0.00000   1.00000
 This molecule is an oblate symmetric top.
 Rotational symmetry number  6.
 Rotational temperatures (Kelvin)     13.68087    13.68087     6.84044
 Rotational constants (GHZ):         285.06342   285.06342   142.53171
 Zero-point vibrational energy      78313.6 (Joules/Mol)
                                   18.71739 (Kcal/Mol)
 Warning -- explicit consideration of   1 degrees of freedom as
           vibrations may cause significant error
 Vibrational temperatures:    654.36  2059.43  2059.44  4520.81  4771.93
          (Kelvin)           4771.93
 
 Zero-point correction=                           0.029828 (Hartree/Particle)
 Thermal correction to Energy=                    0.032933
 Thermal correction to Enthalpy=                  0.033878
 Thermal correction to Gibbs Free Energy=         0.011694
 Sum of electronic and zero-point Energies=            -39.808464
 Sum of electronic and thermal Energies=               -39.805359
 Sum of electronic and thermal Enthalpies=             -39.804415
 Sum of electronic and thermal Free Energies=          -39.826598
 
                     E (Thermal)             CV                S
                      KCal/Mol        Cal/Mol-Kelvin    Cal/Mol-Kelvin
 Total                   20.666              7.502             46.690
 Electronic               0.000              0.000              1.377
 Translational            0.889              2.981             34.068
 Rotational               0.889              2.981             10.432
 Vibrational             18.889              1.541              0.813
 Vibration     1          0.813              1.350              0.781
                       Q            Log10(Q)             Ln(Q)
 Total Bot       0.418110D-05         -5.378710        -12.384936
 Total V=0       0.219391D+09          8.341219         19.206368
 Vib (Bot)       0.214896D-13        -13.667771        -31.471205
 Vib (Bot)    1  0.375588D+00         -0.425288         -0.979262
 Vib (V=0)       0.112761D+01          0.052158          0.120099
 Vib (V=0)    1  0.112535D+01          0.051289          0.118097
 Electronic      0.200000D+01          0.301030          0.693147
 Translational   0.228882D+07          6.359611         14.643545
 Rotational      0.425031D+02          1.628420          3.749576
 ***** Axes restored to original set *****
 -------------------------------------------------------------------
 Center     Atomic                   Forces (Hartrees/Bohr)
 Number     Number              X              Y              Z
 -------------------------------------------------------------------
      1        6           0.000000000    0.000000000    0.000000000
      2        1           0.000000000   -0.000125222    0.000000000
      3        1           0.000108445    0.000062611    0.000000000
      4        1          -0.000108445    0.000062611    0.000000000
 -------------------------------------------------------------------
 Cartesian Forces:  Max     0.000125222 RMS     0.000062611
 FormGI is forming the generalized inverse of G from B-inverse, IUseBI=4.

 GradGradGradGradGradGradGradGradGradGradGradGradGradGradGradGradGradGrad
 Berny optimization.
 Internal  Forces:  Max     0.000125222 RMS     0.000081977
 Search for a local minimum.
 Step number   1 out of a maximum of    2
 All quantities printed in internal units (Hartrees-Bohrs-Radians)
 Second derivative matrix not updated -- analytic derivatives used.
 The second derivative matrix:
                          R1        R2        R3        A1        A2
           R1           0.37531
           R2           0.00062   0.37531
           R3           0.00062   0.00062   0.37531
           A1           0.00543   0.00543  -0.01087   0.06546
           A2           0.00543  -0.01087   0.00543  -0.03273   0.06546
           A3          -0.01087   0.00544   0.00544  -0.03273  -0.03273
           D1           0.00000   0.00000   0.00000   0.00000   0.00000
                          A3        D1
           A3           0.06546
           D1           0.00000   0.00653
 ITU=  0
     Eigenvalues ---    0.00653   0.09723   0.09723   0.37565   0.37565
     Eigenvalues ---    0.37655
 Angle between quadratic step and forces=   0.00 degrees.
 Linear search not attempted -- first point.
 Iteration  1 RMS(Cart)=  0.00021770 RMS(Int)=  0.00000000
 Iteration  2 RMS(Cart)=  0.00000000 RMS(Int)=  0.00000000
 ClnCor:  largest displacement from symmetrization is 1.18D-09 for atom     3.
 Variable       Old X    -DE/DX   Delta X   Delta X   Delta X     New X
                                 (Linear)    (Quad)   (Total)
    R1        2.04644  -0.00013   0.00000  -0.00033  -0.00033   2.04611
    R2        2.04644  -0.00013   0.00000  -0.00033  -0.00033   2.04611
    R3        2.04644  -0.00013   0.00000  -0.00033  -0.00033   2.04611
    A1        2.09440   0.00000   0.00000   0.00000   0.00000   2.09440
    A2        2.09440   0.00000   0.00000   0.00000   0.00000   2.09440
    A3        2.09440   0.00000   0.00000   0.00000   0.00000   2.09440
    D1        3.14159   0.00000   0.00000   0.00000   0.00000   3.14159
         Item               Value     Threshold  Converged?
 Maximum Force            0.000125     0.000450     YES
 RMS     Force            0.000082     0.000300     YES
 Maximum Displacement     0.000333     0.001800     YES
 RMS     Displacement     0.000218     0.001200     YES
 Predicted change in Energy=-6.246366D-08
 Optimization completed.
    -- Stationary point found.
                           ----------------------------
                           !   Optimized Parameters   !
                           ! (Angstroms and Degrees)  !
 --------------------------                            --------------------------
 ! Name  Definition              Value          Derivative Info.                !
 --------------------------------------------------------------------------------
 ! R1    R(1,2)                  1.0829         -DE/DX =   -0.0001              !
 ! R2    R(1,3)                  1.0829         -DE/DX =   -0.0001              !
 ! R3    R(1,4)                  1.0829         -DE/DX =   -0.0001              !
 ! A1    A(2,1,3)              120.0            -DE/DX =    0.0                 !
 ! A2    A(2,1,4)              120.0            -DE/DX =    0.0                 !
 ! A3    A(3,1,4)              120.0            -DE/DX =    0.0                 !
 ! D1    D(2,1,4,3)            180.0            -DE/DX =    0.0                 !
 --------------------------------------------------------------------------------
 GradGradGradGradGradGradGradGradGradGradGradGradGradGradGradGradGradGrad

 1|1|UNPC-X500|Freq|UB3LYP|6-31G(d)|C1H3(2)|SOBEREVA|23-Dec-2015|0||#N 
 Geom=AllCheck Guess=TCheck SCRF=Check GenChk UB3LYP/6-31G(d) Freq||B3L
 YP/TZVP opted||0,2|C,0.,0.,0.|H,0.0000000014,1.0829281627,0.|H,-0.9378
 433001,-0.5414640801,0.|H,0.9378432986,-0.5414640826,0.||Version=IA32W
 -G09RevD.01|HF=-39.8382921|S2=0.753767|S2-1=0.|S2A=0.750007|RMSD=9.913
 e-019|RMSF=6.261e-005|ZeroPoint=0.0298281|Thermal=0.0329335|Dipole=0.,
 0.,0.|DipoleDeriv=0.0486241,0.,0.,0.,0.0486083,0.,0.,0.,-0.4713256,0.0
 39121,0.,0.,0.,-0.0715399,0.,0.,0.,0.1571332,-0.0438736,-0.0479144,0.,
 -0.0479117,0.0114608,0.,0.,0.,0.1571147,-0.0438736,0.0479144,0.,0.0479
 117,0.0114608,0.,0.,0.,0.1571147|Polar=11.8783537,0.,11.8786595,0.,0.,
 5.052357|PG=D03H [O(C1),3C2(H1)]|NImag=0||0.62623614,0.,0.62623667,0.,
 0.,0.01888287,-0.05659694,0.,0.,0.04695258,0.,-0.36089735,0.,0.,0.3753
 1548,0.,0.,-0.00630304,0.,0.,0.00213902,-0.28482092,-0.13176570,0.,0.0
 0482160,0.00344848,0.,0.29322475,-0.13176558,-0.13267085,0.,-0.0242852
 0,-0.00720849,0.,0.14218530,0.12904331,0.,0.,-0.00629648,0.,0.,0.00208
 201,0.,0.,0.00213902,-0.28482092,0.13176570,0.,0.00482160,-0.00344848,
 0.,-0.01322353,0.01386684,0.,0.29322475,0.13176558,-0.13267085,0.,0.02
 428520,-0.00720849,0.,-0.01386684,0.01083665,0.,-0.14218530,0.12904331
 ,0.,0.,-0.00629648,0.,0.,0.00208201,0.,0.,0.00208201,0.,0.,0.00213902|
 |0.,0.,0.,0.,0.00012522,0.,-0.00010845,-0.00006261,0.,0.00010845,-0.00
 006261,0.|||@


 SUCCESS IS NEVER CERTAIN,
 FAILURE IS NEVER FINAL.
 Job cpu time:       0 days  0 hours  0 minutes  4.0 seconds.
 File lengths (MBytes):  RWF=      5 Int=      0 D2E=      0 Chk=      1 Scr=      1
 Normal termination of Gaussian 09 at Wed Dec 23 10:32:44 2015.
