 Default is to use a total of   4 processors:
                                4 via shared-memory
                                1 via Linda
 Entering Link 1 = d:\study\G09W\l1.exe PID=      5044.
  
 Copyright (c) 1988,1990,1992,1993,1995,1998,2003,2009,2013,
            Gaussian, Inc.  All Rights Reserved.
  
 This is part of the Gaussian(R) 09 program.  It is based on
 the Gaussian(R) 03 system (copyright 2003, Gaussian, Inc.),
 the Gaussian(R) 98 system (copyright 1998, Gaussian, Inc.),
 the Gaussian(R) 94 system (copyright 1995, Gaussian, Inc.),
 the Gaussian 92(TM) system (copyright 1992, Gaussian, Inc.),
 the Gaussian 90(TM) system (copyright 1990, Gaussian, Inc.),
 the Gaussian 88(TM) system (copyright 1988, Gaussian, Inc.),
 the Gaussian 86(TM) system (copyright 1986, Carnegie Mellon
 University), and the Gaussian 82(TM) system (copyright 1983,
 Carnegie Mellon University). Gaussian is a federally registered
 trademark of Gaussian, Inc.
  
 This software contains proprietary and confidential information,
 including trade secrets, belonging to Gaussian, Inc.
  
 This software is provided under written license and may be
 used, copied, transmitted, or stored only in accord with that
 written license.
  
 The following legend is applicable only to US Government
 contracts under FAR:
  
                    RESTRICTED RIGHTS LEGEND
  
 Use, reproduction and disclosure by the US Government is
 subject to restrictions as set forth in subparagraphs (a)
 and (c) of the Commercial Computer Software - Restricted
 Rights clause in FAR 52.227-19.
  
 Gaussian, Inc.
 340 Quinnipiac St., Bldg. 40, Wallingford CT 06492
  
  
 ---------------------------------------------------------------
 Warning -- This program may not be used in any manner that
 competes with the business of Gaussian, Inc. or will provide
 assistance to any competitor of Gaussian, Inc.  The licensee
 of this program is prohibited from giving any competitor of
 Gaussian, Inc. access to this program.  By using this program,
 the user acknowledges that Gaussian, Inc. is engaged in the
 business of creating and licensing software in the field of
 computational chemistry and represents and warrants to the
 licensee that it is not a competitor of Gaussian, Inc. and that
 it will not use this program in any manner prohibited above.
 ---------------------------------------------------------------
  

 Cite this work as:
 Gaussian 09, Revision D.01,
 M. J. Frisch, G. W. Trucks, H. B. Schlegel, G. E. Scuseria, 
 M. A. Robb, J. R. Cheeseman, G. Scalmani, V. Barone, B. Mennucci, 
 G. A. Petersson, H. Nakatsuji, M. Caricato, X. Li, H. P. Hratchian, 
 A. F. Izmaylov, J. Bloino, G. Zheng, J. L. Sonnenberg, M. Hada, 
 M. Ehara, K. Toyota, R. Fukuda, J. Hasegawa, M. Ishida, T. Nakajima, 
 Y. Honda, O. Kitao, H. Nakai, T. Vreven, J. A. Montgomery, Jr., 
 J. E. Peralta, F. Ogliaro, M. Bearpark, J. J. Heyd, E. Brothers, 
 K. N. Kudin, V. N. Staroverov, T. Keith, R. Kobayashi, J. Normand, 
 K. Raghavachari, A. Rendell, J. C. Burant, S. S. Iyengar, J. Tomasi, 
 M. Cossi, N. Rega, J. M. Millam, M. Klene, J. E. Knox, J. B. Cross, 
 V. Bakken, C. Adamo, J. Jaramillo, R. Gomperts, R. E. Stratmann, 
 O. Yazyev, A. J. Austin, R. Cammi, C. Pomelli, J. W. Ochterski, 
 R. L. Martin, K. Morokuma, V. G. Zakrzewski, G. A. Voth, 
 P. Salvador, J. J. Dannenberg, S. Dapprich, A. D. Daniels, 
 O. Farkas, J. B. Foresman, J. V. Ortiz, J. Cioslowski, 
 and D. J. Fox, Gaussian, Inc., Wallingford CT, 2013.
 
 ******************************************
 Gaussian 09:  IA32W-G09RevD.01 24-Apr-2013
                22-Dec-2015 
 ******************************************
 %chk=C:\gtest\ethane.chk
 ------------------------
 # b3lyp/6-31G** opt freq
 ------------------------
 1/14=-1,18=20,19=15,26=3,38=1/1,3;
 2/9=110,12=2,17=6,18=5,40=1/2;
 3/5=1,6=6,7=101,11=2,16=1,25=1,30=1,71=1,74=-5/1,2,3;
 4//1;
 5/5=2,38=5/2;
 6/7=2,8=2,9=2,10=2,28=1/1;
 7//1,2,3,16;
 1/14=-1,18=20,19=15,26=3/3(2);
 2/9=110/2;
 99//99;
 2/9=110/2;
 3/5=1,6=6,7=101,11=2,16=1,25=1,30=1,71=1,74=-5/1,2,3;
 4/5=5,16=3,69=1/1;
 5/5=2,38=5/2;
 7//1,2,3,16;
 1/14=-1,18=20,19=15,26=3/3(-5);
 2/9=110/2;
 6/7=2,8=2,9=2,10=2,19=2,28=1/1;
 99/9=1/99;
 --------------------
 b3lyp/6-311G** opted
 --------------------
 Symbolic Z-matrix:
 Charge =  0 Multiplicity = 1
 C                    -1.19198   1.81297   0.7662 
 H                    -2.22737   2.15997   0.82753 
 H                    -0.5505    2.69761   0.72034 
 H                    -0.96449   1.2894    1.69911 
 C                    -0.97887   0.90616  -0.44833 
 H                     0.0566    0.55946  -0.50987 
 H                    -1.62008   0.02133  -0.40228 
 H                    -1.20674   1.42961  -1.38122 
 

 GradGradGradGradGradGradGradGradGradGradGradGradGradGradGradGradGradGrad
 Berny optimization.
 Initialization pass.
                           ----------------------------
                           !    Initial Parameters    !
                           ! (Angstroms and Degrees)  !
 --------------------------                            --------------------------
 ! Name  Definition              Value          Derivative Info.                !
 --------------------------------------------------------------------------------
 ! R1    R(1,2)                  1.0937         estimate D2E/DX2                !
 ! R2    R(1,3)                  1.0937         estimate D2E/DX2                !
 ! R3    R(1,4)                  1.0937         estimate D2E/DX2                !
 ! R4    R(1,5)                  1.5306         estimate D2E/DX2                !
 ! R5    R(5,6)                  1.0937         estimate D2E/DX2                !
 ! R6    R(5,7)                  1.0937         estimate D2E/DX2                !
 ! R7    R(5,8)                  1.0937         estimate D2E/DX2                !
 ! A1    A(2,1,3)              107.5155         estimate D2E/DX2                !
 ! A2    A(2,1,4)              107.5155         estimate D2E/DX2                !
 ! A3    A(2,1,5)              111.3625         estimate D2E/DX2                !
 ! A4    A(3,1,4)              107.5155         estimate D2E/DX2                !
 ! A5    A(3,1,5)              111.3625         estimate D2E/DX2                !
 ! A6    A(4,1,5)              111.3625         estimate D2E/DX2                !
 ! A7    A(1,5,6)              111.3625         estimate D2E/DX2                !
 ! A8    A(1,5,7)              111.3625         estimate D2E/DX2                !
 ! A9    A(1,5,8)              111.3625         estimate D2E/DX2                !
 ! A10   A(6,5,7)              107.5155         estimate D2E/DX2                !
 ! A11   A(6,5,8)              107.5155         estimate D2E/DX2                !
 ! A12   A(7,5,8)              107.5155         estimate D2E/DX2                !
 ! D1    D(2,1,5,6)            179.9783         estimate D2E/DX2                !
 ! D2    D(2,1,5,7)            -60.0217         estimate D2E/DX2                !
 ! D3    D(2,1,5,8)             59.9783         estimate D2E/DX2                !
 ! D4    D(3,1,5,6)             59.9783         estimate D2E/DX2                !
 ! D5    D(3,1,5,7)            179.9783         estimate D2E/DX2                !
 ! D6    D(3,1,5,8)            -60.0217         estimate D2E/DX2                !
 ! D7    D(4,1,5,6)            -60.0217         estimate D2E/DX2                !
 ! D8    D(4,1,5,7)             59.9783         estimate D2E/DX2                !
 ! D9    D(4,1,5,8)            179.9783         estimate D2E/DX2                !
 --------------------------------------------------------------------------------
 Trust Radius=3.00D-01 FncErr=1.00D-07 GrdErr=1.00D-06
 Number of steps in this run=     38 maximum allowed number of steps=    100.
 GradGradGradGradGradGradGradGradGradGradGradGradGradGradGradGradGradGrad

                          Input orientation:                          
 ---------------------------------------------------------------------
 Center     Atomic      Atomic             Coordinates (Angstroms)
 Number     Number       Type             X           Y           Z
 ---------------------------------------------------------------------
      1          6           0       -1.191982    1.812966    0.766198
      2          1           0       -2.227368    2.159972    0.827526
      3          1           0       -0.550503    2.697612    0.720341
      4          1           0       -0.964485    1.289405    1.699111
      5          6           0       -0.978874    0.906164   -0.448328
      6          1           0        0.056601    0.559465   -0.509870
      7          1           0       -1.620077    0.021327   -0.402281
      8          1           0       -1.206738    1.429607   -1.381218
 ---------------------------------------------------------------------
                    Distance matrix (angstroms):
                    1          2          3          4          5
     1  C    0.000000
     2  H    1.093708   0.000000
     3  H    1.093708   1.764205   0.000000
     4  H    1.093708   1.764205   1.764205   0.000000
     5  C    1.530614   2.181416   2.181416   2.181416   0.000000
     6  H    2.181416   3.093019   2.540407   2.540675   1.093708
     7  H    2.181416   2.540675   3.093019   2.540407   1.093708
     8  H    2.181416   2.540407   2.540675   3.093019   1.093708
                    6          7          8
     6  H    0.000000
     7  H    1.764205   0.000000
     8  H    1.764205   1.764205   0.000000
 Stoichiometry    C2H6
 Framework group  D3[C3(C.C),X(H6)]
 Deg. of freedom     4
 Full point group                 D3      NOp   6
 Largest Abelian subgroup         C2      NOp   2
 Largest concise Abelian subgroup C2      NOp   2
                         Standard orientation:                         
 ---------------------------------------------------------------------
 Center     Atomic      Atomic             Coordinates (Angstroms)
 Number     Number       Type             X           Y           Z
 ---------------------------------------------------------------------
      1          6           0        0.000000    0.000000    0.765307
      2          1           0       -0.509115    0.882199    1.163709
      3          1           0        1.018564   -0.000193    1.163709
      4          1           0       -0.509449   -0.882006    1.163709
      5          6           0        0.000000    0.000000   -0.765307
      6          1           0        0.509449   -0.882006   -1.163709
      7          1           0       -1.018564   -0.000193   -1.163709
      8          1           0        0.509115    0.882199   -1.163709
 ---------------------------------------------------------------------
 Rotational constants (GHZ):     80.5571203     19.9106529     19.9106529
 Standard basis: 6-31G(d,p) (6D, 7F)
 There are    30 symmetry adapted cartesian basis functions of A   symmetry.
 There are    30 symmetry adapted cartesian basis functions of B   symmetry.
 There are    30 symmetry adapted basis functions of A   symmetry.
 There are    30 symmetry adapted basis functions of B   symmetry.
    60 basis functions,    98 primitive gaussians,    60 cartesian basis functions
     9 alpha electrons        9 beta electrons
       nuclear repulsion energy        42.1601599596 Hartrees.
 NAtoms=    8 NActive=    8 NUniq=    2 SFac= 4.00D+00 NAtFMM=   60 NAOKFM=F Big=F
 Integral buffers will be    262144 words long.
 Raffenetti 2 integral format.
 Two-electron integral symmetry is turned on.
 One-electron integrals computed using PRISM.
 NBasis=    60 RedAO= T EigKep=  5.78D-03  NBF=    30    30
 NBsUse=    60 1.00D-06 EigRej= -1.00D+00 NBFU=    30    30
 ExpMin= 1.61D-01 ExpMax= 3.05D+03 ExpMxC= 4.57D+02 IAcc=1 IRadAn=         1 AccDes= 0.00D+00
 Harris functional with IExCor=  402 and IRadAn=       1 diagonalized for initial guess.
 HarFok:  IExCor=  402 AccDes= 0.00D+00 IRadAn=         1 IDoV= 1 UseB2=F ITyADJ=14
 ICtDFT=  3500011 ScaDFX=  1.000000  1.000000  1.000000  1.000000
 FoFCou: FMM=F IPFlag=           0 FMFlag=      100000 FMFlg1=           0
         NFxFlg=           0 DoJE=T BraDBF=F KetDBF=T FulRan=T
         wScrn=  0.000000 ICntrl=     500 IOpCl=  0 I1Cent=   200000004 NGrid=           0
         NMat0=    1 NMatS0=      1 NMatT0=    0 NMatD0=    1 NMtDS0=    0 NMtDT0=    0
 Petite list used in FoFCou.
 Initial guess orbital symmetries:
       Occupied  (A1) (A2) (A1) (A2) (E) (E) (A1) (E) (E)
       Virtual   (A1) (E) (E) (A2) (E) (E) (A2) (A1) (E) (E) (E)
                 (E) (A2) (A1) (E) (E) (E) (E) (A2) (A1) (E) (E)
                 (A2) (E) (E) (A1) (E) (E) (A1) (A2) (E) (E) (E)
                 (E) (A2) (E) (E) (A1) (A2) (E) (E) (E) (E) (A1)
                 (A2) (E) (E) (E) (E) (A1) (A2)
 The electronic state of the initial guess is 1-A1.
 Keep R1 ints in memory in symmetry-blocked form, NReq=2584804.
 Requested convergence on RMS density matrix=1.00D-08 within 128 cycles.
 Requested convergence on MAX density matrix=1.00D-06.
 Requested convergence on             energy=1.00D-06.
 No special actions if energy rises.
 Integral accuracy reduced to 1.0D-05 until final iterations.
 Initial convergence to 1.0D-05 achieved.  Increase integral accuracy.
 SCF Done:  E(RB3LYP) =  -79.8387316891     A.U. after    9 cycles
            NFock=  9  Conv=0.40D-08     -V/T= 2.0107

 **********************************************************************

            Population analysis using the SCF density.

 **********************************************************************

 Orbital symmetries:
       Occupied  (A1) (A2) (A1) (A2) (E) (E) (A1) (E) (E)
       Virtual   (A1) (A2) (E) (E) (E) (E) (A2) (A1) (E) (E) (E)
                 (E) (A2) (E) (E) (A1) (E) (E) (A2) (A1) (E) (E)
                 (A2) (E) (E) (A1) (A1) (A2) (E) (E) (E) (E) (E)
                 (E) (A2) (E) (E) (A1) (A2) (E) (E) (E) (E) (A1)
                 (A2) (E) (E) (E) (E) (A1) (A2)
 The electronic state is 1-A1.
 Alpha  occ. eigenvalues --  -10.17216 -10.17195  -0.74782  -0.61235  -0.42963
 Alpha  occ. eigenvalues --   -0.42963  -0.36295  -0.33944  -0.33944
 Alpha virt. eigenvalues --    0.10524   0.15650   0.16452   0.16452   0.19035
 Alpha virt. eigenvalues --    0.19035   0.24193   0.50816   0.53916   0.53916
 Alpha virt. eigenvalues --    0.61888   0.61888   0.66604   0.86729   0.86729
 Alpha virt. eigenvalues --    0.88301   0.89553   0.89553   0.95509   1.06530
 Alpha virt. eigenvalues --    1.32773   1.32773   1.44095   1.67832   1.67832
 Alpha virt. eigenvalues --    1.86097   2.05792   2.05837   2.06742   2.06742
 Alpha virt. eigenvalues --    2.08924   2.08924   2.26733   2.26733   2.33859
 Alpha virt. eigenvalues --    2.48105   2.48105   2.69168   2.77557   2.80225
 Alpha virt. eigenvalues --    2.80225   2.90915   2.90915   3.15069   3.24116
 Alpha virt. eigenvalues --    3.39915   3.39915   3.52403   3.52403   4.32151
 Alpha virt. eigenvalues --    4.57991
          Condensed to atoms (all electrons):
               1          2          3          4          5          6
     1  C    4.870973   0.391494   0.391494   0.391494   0.374018  -0.034805
     2  H    0.391494   0.607792  -0.033161  -0.033161  -0.034805   0.004862
     3  H    0.391494  -0.033161   0.607792  -0.033161  -0.034805  -0.004024
     4  H    0.391494  -0.033161  -0.033161   0.607792  -0.034805  -0.004016
     5  C    0.374018  -0.034805  -0.034805  -0.034805   4.870973   0.391494
     6  H   -0.034805   0.004862  -0.004024  -0.004016   0.391494   0.607792
     7  H   -0.034805  -0.004016   0.004862  -0.004024   0.391494  -0.033161
     8  H   -0.034805  -0.004024  -0.004016   0.004862   0.391494  -0.033161
               7          8
     1  C   -0.034805  -0.034805
     2  H   -0.004016  -0.004024
     3  H    0.004862  -0.004016
     4  H   -0.004024   0.004862
     5  C    0.391494   0.391494
     6  H   -0.033161  -0.033161
     7  H    0.607792  -0.033161
     8  H   -0.033161   0.607792
 Mulliken charges:
               1
     1  C   -0.315058
     2  H    0.105019
     3  H    0.105019
     4  H    0.105019
     5  C   -0.315058
     6  H    0.105019
     7  H    0.105019
     8  H    0.105019
 Sum of Mulliken charges =   0.00000
 Mulliken charges with hydrogens summed into heavy atoms:
               1
     1  C    0.000000
     5  C    0.000000
 Electronic spatial extent (au):  <R**2>=            109.5091
 Charge=              0.0000 electrons
 Dipole moment (field-independent basis, Debye):
    X=              0.0000    Y=              0.0000    Z=              0.0000  Tot=              0.0000
 Quadrupole moment (field-independent basis, Debye-Ang):
   XX=            -14.7187   YY=            -14.7187   ZZ=            -15.1707
   XY=              0.0000   XZ=              0.0000   YZ=              0.0000
 Traceless Quadrupole moment (field-independent basis, Debye-Ang):
   XX=              0.1506   YY=              0.1506   ZZ=             -0.3013
   XY=              0.0000   XZ=              0.0000   YZ=              0.0000
 Octapole moment (field-independent basis, Debye-Ang**2):
  XXX=              0.0000  YYY=              0.0005  ZZZ=              0.0000  XYY=              0.0000
  XXY=             -0.0005  XXZ=              0.0000  XZZ=              0.0000  YZZ=              0.0000
  YYZ=              0.0000  XYZ=              0.0000
 Hexadecapole moment (field-independent basis, Debye-Ang**3):
 XXXX=            -28.8028 YYYY=            -28.8028 ZZZZ=            -92.4712 XXXY=              0.0000
 XXXZ=              1.1997 YYYX=              0.0000 YYYZ=              0.0000 ZZZX=              0.0000
 ZZZY=              0.0000 XXYY=             -9.6009 XXZZ=            -19.1821 YYZZ=            -19.1821
 XXYZ=              0.0000 YYXZ=             -1.1997 ZZXY=              0.0000
 N-N= 4.216015995959D+01 E-N=-2.681617236151D+02  KE= 7.899687072063D+01
 Symmetry A    KE= 4.074317053719D+01
 Symmetry B    KE= 3.825370018343D+01
 Calling FoFJK, ICntrl=      2127 FMM=F ISym2X=1 I1Cent= 0 IOpClX= 0 NMat=1 NMatS=1 NMatT=0.
 ***** Axes restored to original set *****
 -------------------------------------------------------------------
 Center     Atomic                   Forces (Hartrees/Bohr)
 Number     Number              X              Y              Z
 -------------------------------------------------------------------
      1        6           0.000161507   -0.000687231   -0.000920444
      2        1          -0.000824487    0.000280924    0.000055016
      3        1           0.000509213    0.000708186   -0.000029972
      4        1           0.000179574   -0.000411692    0.000748323
      5        6          -0.000161507    0.000687231    0.000920444
      6        1           0.000824673   -0.000280291   -0.000055456
      7        1          -0.000508645   -0.000708577    0.000030364
      8        1          -0.000180328    0.000411450   -0.000748274
 -------------------------------------------------------------------
 Cartesian Forces:  Max     0.000920444 RMS     0.000550057

 GradGradGradGradGradGradGradGradGradGradGradGradGradGradGradGradGradGrad
 Berny optimization.
 FormGI is forming the generalized inverse of G from B-inverse, IUseBI=4.
 Internal  Forces:  Max     0.000872736 RMS     0.000405543
 Search for a local minimum.
 Step number   1 out of a maximum of   38
 All quantities printed in internal units (Hartrees-Bohrs-Radians)
 Mixed Optimization -- En-DIIS/RFO-DIIS
 Second derivative matrix not updated -- first step.
 ITU=  0
     Eigenvalues ---    0.00361   0.05454   0.05454   0.05454   0.05454
     Eigenvalues ---    0.16000   0.16000   0.16000   0.16000   0.16000
     Eigenvalues ---    0.16000   0.29367   0.34388   0.34388   0.34388
     Eigenvalues ---    0.34388   0.34388   0.34388
 RFO step:  Lambda=-1.34109318D-05 EMin= 3.60982933D-03
 Linear search not attempted -- first point.
 Iteration  1 RMS(Cart)=  0.00112873 RMS(Int)=  0.00000005
 Iteration  2 RMS(Cart)=  0.00000006 RMS(Int)=  0.00000000
 ClnCor:  largest displacement from symmetrization is 1.69D-13 for atom     3.
 Variable       Old X    -DE/DX   Delta X   Delta X   Delta X     New X
                                 (Linear)    (Quad)   (Total)
    R1        2.06681   0.00087   0.00000   0.00254   0.00254   2.06935
    R2        2.06681   0.00087   0.00000   0.00254   0.00254   2.06935
    R3        2.06681   0.00087   0.00000   0.00254   0.00254   2.06935
    R4        2.89244  -0.00019   0.00000  -0.00063  -0.00063   2.89181
    R5        2.06681   0.00087   0.00000   0.00254   0.00254   2.06935
    R6        2.06681   0.00087   0.00000   0.00254   0.00254   2.06935
    R7        2.06681   0.00087   0.00000   0.00254   0.00254   2.06935
    A1        1.87650  -0.00001   0.00000  -0.00005  -0.00005   1.87645
    A2        1.87650  -0.00001   0.00000  -0.00005  -0.00005   1.87645
    A3        1.94364   0.00001   0.00000   0.00005   0.00005   1.94369
    A4        1.87650  -0.00001   0.00000  -0.00005  -0.00005   1.87645
    A5        1.94364   0.00001   0.00000   0.00005   0.00005   1.94369
    A6        1.94364   0.00001   0.00000   0.00005   0.00005   1.94369
    A7        1.94364   0.00001   0.00000   0.00005   0.00005   1.94369
    A8        1.94364   0.00001   0.00000   0.00005   0.00005   1.94369
    A9        1.94364   0.00001   0.00000   0.00005   0.00005   1.94369
   A10        1.87650  -0.00001   0.00000  -0.00005  -0.00005   1.87645
   A11        1.87650  -0.00001   0.00000  -0.00005  -0.00005   1.87645
   A12        1.87650  -0.00001   0.00000  -0.00005  -0.00005   1.87645
    D1        3.14121   0.00000   0.00000  -0.00004  -0.00004   3.14117
    D2       -1.04758   0.00000   0.00000  -0.00004  -0.00004  -1.04762
    D3        1.04682   0.00000   0.00000  -0.00004  -0.00004   1.04678
    D4        1.04682   0.00000   0.00000  -0.00004  -0.00004   1.04678
    D5        3.14121   0.00000   0.00000  -0.00004  -0.00004   3.14117
    D6       -1.04758   0.00000   0.00000  -0.00004  -0.00004  -1.04762
    D7       -1.04758   0.00000   0.00000  -0.00004  -0.00004  -1.04762
    D8        1.04682   0.00000   0.00000  -0.00004  -0.00004   1.04678
    D9        3.14121   0.00000   0.00000  -0.00004  -0.00004   3.14117
         Item               Value     Threshold  Converged?
 Maximum Force            0.000873     0.000450     NO 
 RMS     Force            0.000406     0.000300     NO 
 Maximum Displacement     0.002348     0.001800     NO 
 RMS     Displacement     0.001129     0.001200     YES
 Predicted change in Energy=-6.705466D-06
 GradGradGradGradGradGradGradGradGradGradGradGradGradGradGradGradGradGrad

                          Input orientation:                          
 ---------------------------------------------------------------------
 Center     Atomic      Atomic             Coordinates (Angstroms)
 Number     Number       Type             X           Y           Z
 ---------------------------------------------------------------------
      1          6           0       -1.191959    1.812867    0.766065
      2          1           0       -2.228600    2.160342    0.827498
      3          1           0       -0.549695    2.698604    0.720206
      4          1           0       -0.964215    1.288697    1.700151
      5          6           0       -0.978897    0.906262   -0.448196
      6          1           0        0.057844    0.559130   -0.509867
      7          1           0       -1.620853    0.020313   -0.402124
      8          1           0       -1.207050    1.430301   -1.382255
 ---------------------------------------------------------------------
                    Distance matrix (angstroms):
                    1          2          3          4          5
     1  C    0.000000
     2  H    1.095051   0.000000
     3  H    1.095051   1.766340   0.000000
     4  H    1.095051   1.766340   1.766340   0.000000
     5  C    1.530280   2.182170   2.182170   2.182170   0.000000
     6  H    2.182170   3.095197   2.541561   2.541859   1.095051
     7  H    2.182170   2.541859   3.095197   2.541561   1.095051
     8  H    2.182170   2.541561   2.541859   3.095197   1.095051
                    6          7          8
     6  H    0.000000
     7  H    1.766340   0.000000
     8  H    1.766340   1.766340   0.000000
 Stoichiometry    C2H6
 Framework group  D3[C3(C.C),X(H6)]
 Deg. of freedom     4
 Full point group                 D3      NOp   6
 Largest Abelian subgroup         C2      NOp   2
 Largest concise Abelian subgroup C2      NOp   2
                         Standard orientation:                         
 ---------------------------------------------------------------------
 Center     Atomic      Atomic             Coordinates (Angstroms)
 Number     Number       Type             X           Y           Z
 ---------------------------------------------------------------------
      1          6           0        0.000000    0.000000    0.765140
      2          1           0       -0.509712    0.883278    1.164077
      3          1           0        1.019797   -0.000215    1.164077
      4          1           0       -0.510085   -0.883063    1.164077
      5          6           0        0.000000    0.000000   -0.765140
      6          1           0        0.510085   -0.883063   -1.164077
      7          1           0       -1.019797   -0.000215   -1.164077
      8          1           0        0.509712    0.883278   -1.164077
 ---------------------------------------------------------------------
 Rotational constants (GHZ):     80.3624934     19.9054399     19.9054399
 Standard basis: 6-31G(d,p) (6D, 7F)
 There are    30 symmetry adapted cartesian basis functions of A   symmetry.
 There are    30 symmetry adapted cartesian basis functions of B   symmetry.
 There are    30 symmetry adapted basis functions of A   symmetry.
 There are    30 symmetry adapted basis functions of B   symmetry.
    60 basis functions,    98 primitive gaussians,    60 cartesian basis functions
     9 alpha electrons        9 beta electrons
       nuclear repulsion energy        42.1353866223 Hartrees.
 NAtoms=    8 NActive=    8 NUniq=    2 SFac= 4.00D+00 NAtFMM=   60 NAOKFM=F Big=F
 Integral buffers will be    262144 words long.
 Raffenetti 2 integral format.
 Two-electron integral symmetry is turned on.
 One-electron integrals computed using PRISM.
 NBasis=    60 RedAO= T EigKep=  5.79D-03  NBF=    30    30
 NBsUse=    60 1.00D-06 EigRej= -1.00D+00 NBFU=    30    30
 Initial guess from the checkpoint file:  "C:\gtest\ethane.chk"
 B after Tr=     0.000000    0.000000    0.000000
         Rot=    1.000000    0.000000    0.000000    0.000000 Ang=   0.00 deg.
 Initial guess orbital symmetries:
       Occupied  (A1) (A2) (A1) (A2) (E) (E) (A1) (E) (E)
       Virtual   (A1) (?A) (A1) (?B) (?A) (?A) (A1) (?B) (?B) (A1)
                 (?A) (?B) (A1) (A1) (?A) (?B) (?A) (A1) (?B) (A1)
                 (?A) (?B) (A1) (?A) (?B) (A2) (?A) (?B) (?A) (?B)
                 (A2) (?A) (?B) (A2) (?A) (?B) (A2) (A2) (?A) (?B)
                 (A2) (?B) (?A) (?A) (A2) (A2) (?B) (A2) (?B) (?A)
                 (A2)
 Keep R1 ints in memory in symmetry-blocked form, NReq=2584804.
 Requested convergence on RMS density matrix=1.00D-08 within 128 cycles.
 Requested convergence on MAX density matrix=1.00D-06.
 Requested convergence on             energy=1.00D-06.
 No special actions if energy rises.
 SCF Done:  E(RB3LYP) =  -79.8387384378     A.U. after    6 cycles
            NFock=  6  Conv=0.20D-08     -V/T= 2.0108
 Calling FoFJK, ICntrl=      2127 FMM=F ISym2X=1 I1Cent= 0 IOpClX= 0 NMat=1 NMatS=1 NMatT=0.
 ***** Axes restored to original set *****
 -------------------------------------------------------------------
 Center     Atomic                   Forces (Hartrees/Bohr)
 Number     Number              X              Y              Z
 -------------------------------------------------------------------
      1        6           0.000027077   -0.000115216   -0.000154315
      2        1           0.000006097    0.000017982    0.000028296
      3        1          -0.000011946    0.000012073    0.000029542
      4        1          -0.000007624    0.000027276    0.000018949
      5        6          -0.000027077    0.000115216    0.000154315
      6        1          -0.000006058   -0.000017849   -0.000028389
      7        1           0.000012066   -0.000012155   -0.000029459
      8        1           0.000007466   -0.000027327   -0.000018939
 -------------------------------------------------------------------
 Cartesian Forces:  Max     0.000154315 RMS     0.000058669

 GradGradGradGradGradGradGradGradGradGradGradGradGradGradGradGradGradGrad
 Berny optimization.
 Using GEDIIS/GDIIS optimizer.
 FormGI is forming the generalized inverse of G from B-inverse, IUseBI=4.
 Internal  Forces:  Max     0.000097706 RMS     0.000028958
 Search for a local minimum.
 Step number   2 out of a maximum of   38
 All quantities printed in internal units (Hartrees-Bohrs-Radians)
 Mixed Optimization -- En-DIIS/RFO-DIIS
 Swapping is turned off.
 Update second derivatives using D2CorX and points    1    2
 DE= -6.75D-06 DEPred=-6.71D-06 R= 1.01D+00
 TightC=F SS=  1.41D+00  RLast= 6.25D-03 DXNew= 5.0454D-01 1.8755D-02
 Trust test= 1.01D+00 RLast= 6.25D-03 DXMaxT set to 3.00D-01
 ITU=  1  0
     Eigenvalues ---    0.00361   0.05453   0.05453   0.05453   0.05453
     Eigenvalues ---    0.15863   0.16000   0.16000   0.16000   0.16000
     Eigenvalues ---    0.16000   0.28779   0.34388   0.34388   0.34388
     Eigenvalues ---    0.34388   0.34388   0.35121
 En-DIIS/RFO-DIIS IScMMF=        0 using points:     2    1
 RFO step:  Lambda=-5.28375709D-08.
 DidBck=F Rises=F RFO-DIIS coefs:    1.00781   -0.00781
 Iteration  1 RMS(Cart)=  0.00013475 RMS(Int)=  0.00000002
 Iteration  2 RMS(Cart)=  0.00000002 RMS(Int)=  0.00000001
 ClnCor:  largest displacement from symmetrization is 2.12D-13 for atom     8.
 Variable       Old X    -DE/DX   Delta X   Delta X   Delta X     New X
                                 (Linear)    (Quad)   (Total)
    R1        2.06935   0.00000   0.00002   0.00001   0.00003   2.06937
    R2        2.06935   0.00000   0.00002   0.00001   0.00003   2.06937
    R3        2.06935   0.00000   0.00002   0.00001   0.00003   2.06937
    R4        2.89181  -0.00010   0.00000  -0.00034  -0.00034   2.89147
    R5        2.06935   0.00000   0.00002   0.00001   0.00003   2.06937
    R6        2.06935   0.00000   0.00002   0.00001   0.00003   2.06937
    R7        2.06935   0.00000   0.00002   0.00001   0.00003   2.06937
    A1        1.87645  -0.00004   0.00000  -0.00022  -0.00022   1.87623
    A2        1.87645  -0.00004   0.00000  -0.00022  -0.00022   1.87623
    A3        1.94369   0.00003   0.00000   0.00021   0.00021   1.94390
    A4        1.87645  -0.00004   0.00000  -0.00022  -0.00022   1.87623
    A5        1.94369   0.00003   0.00000   0.00021   0.00021   1.94390
    A6        1.94369   0.00003   0.00000   0.00021   0.00021   1.94390
    A7        1.94369   0.00003   0.00000   0.00021   0.00021   1.94390
    A8        1.94369   0.00003   0.00000   0.00021   0.00021   1.94390
    A9        1.94369   0.00003   0.00000   0.00021   0.00021   1.94390
   A10        1.87645  -0.00004   0.00000  -0.00022  -0.00022   1.87623
   A11        1.87645  -0.00004   0.00000  -0.00022  -0.00022   1.87623
   A12        1.87645  -0.00004   0.00000  -0.00022  -0.00022   1.87623
    D1        3.14117   0.00000   0.00000  -0.00002  -0.00002   3.14116
    D2       -1.04762   0.00000   0.00000  -0.00002  -0.00002  -1.04764
    D3        1.04678   0.00000   0.00000  -0.00002  -0.00002   1.04676
    D4        1.04678   0.00000   0.00000  -0.00002  -0.00002   1.04676
    D5        3.14117   0.00000   0.00000  -0.00002  -0.00002   3.14116
    D6       -1.04762   0.00000   0.00000  -0.00002  -0.00002  -1.04764
    D7       -1.04762   0.00000   0.00000  -0.00002  -0.00002  -1.04764
    D8        1.04678   0.00000   0.00000  -0.00002  -0.00002   1.04676
    D9        3.14117   0.00000   0.00000  -0.00002  -0.00002   3.14116
         Item               Value     Threshold  Converged?
 Maximum Force            0.000098     0.000450     YES
 RMS     Force            0.000029     0.000300     YES
 Maximum Displacement     0.000245     0.001800     YES
 RMS     Displacement     0.000135     0.001200     YES
 Predicted change in Energy=-6.070990D-08
 Optimization completed.
    -- Stationary point found.
                           ----------------------------
                           !   Optimized Parameters   !
                           ! (Angstroms and Degrees)  !
 --------------------------                            --------------------------
 ! Name  Definition              Value          Derivative Info.                !
 --------------------------------------------------------------------------------
 ! R1    R(1,2)                  1.0951         -DE/DX =    0.0                 !
 ! R2    R(1,3)                  1.0951         -DE/DX =    0.0                 !
 ! R3    R(1,4)                  1.0951         -DE/DX =    0.0                 !
 ! R4    R(1,5)                  1.5303         -DE/DX =   -0.0001              !
 ! R5    R(5,6)                  1.0951         -DE/DX =    0.0                 !
 ! R6    R(5,7)                  1.0951         -DE/DX =    0.0                 !
 ! R7    R(5,8)                  1.0951         -DE/DX =    0.0                 !
 ! A1    A(2,1,3)              107.5128         -DE/DX =    0.0                 !
 ! A2    A(2,1,4)              107.5128         -DE/DX =    0.0                 !
 ! A3    A(2,1,5)              111.3651         -DE/DX =    0.0                 !
 ! A4    A(3,1,4)              107.5128         -DE/DX =    0.0                 !
 ! A5    A(3,1,5)              111.3651         -DE/DX =    0.0                 !
 ! A6    A(4,1,5)              111.3651         -DE/DX =    0.0                 !
 ! A7    A(1,5,6)              111.3651         -DE/DX =    0.0                 !
 ! A8    A(1,5,7)              111.3651         -DE/DX =    0.0                 !
 ! A9    A(1,5,8)              111.3651         -DE/DX =    0.0                 !
 ! A10   A(6,5,7)              107.5128         -DE/DX =    0.0                 !
 ! A11   A(6,5,8)              107.5128         -DE/DX =    0.0                 !
 ! A12   A(7,5,8)              107.5128         -DE/DX =    0.0                 !
 ! D1    D(2,1,5,6)            179.9758         -DE/DX =    0.0                 !
 ! D2    D(2,1,5,7)            -60.0242         -DE/DX =    0.0                 !
 ! D3    D(2,1,5,8)             59.9758         -DE/DX =    0.0                 !
 ! D4    D(3,1,5,6)             59.9758         -DE/DX =    0.0                 !
 ! D5    D(3,1,5,7)            179.9758         -DE/DX =    0.0                 !
 ! D6    D(3,1,5,8)            -60.0242         -DE/DX =    0.0                 !
 ! D7    D(4,1,5,6)            -60.0242         -DE/DX =    0.0                 !
 ! D8    D(4,1,5,7)             59.9758         -DE/DX =    0.0                 !
 ! D9    D(4,1,5,8)            179.9758         -DE/DX =    0.0                 !
 --------------------------------------------------------------------------------
 GradGradGradGradGradGradGradGradGradGradGradGradGradGradGradGradGradGrad

                          Input orientation:                          
 ---------------------------------------------------------------------
 Center     Atomic      Atomic             Coordinates (Angstroms)
 Number     Number       Type             X           Y           Z
 ---------------------------------------------------------------------
      1          6           0       -1.191959    1.812867    0.766065
      2          1           0       -2.228600    2.160342    0.827498
      3          1           0       -0.549695    2.698604    0.720206
      4          1           0       -0.964215    1.288697    1.700151
      5          6           0       -0.978897    0.906262   -0.448196
      6          1           0        0.057844    0.559130   -0.509867
      7          1           0       -1.620853    0.020313   -0.402124
      8          1           0       -1.207050    1.430301   -1.382255
 ---------------------------------------------------------------------
                    Distance matrix (angstroms):
                    1          2          3          4          5
     1  C    0.000000
     2  H    1.095051   0.000000
     3  H    1.095051   1.766340   0.000000
     4  H    1.095051   1.766340   1.766340   0.000000
     5  C    1.530280   2.182170   2.182170   2.182170   0.000000
     6  H    2.182170   3.095197   2.541561   2.541859   1.095051
     7  H    2.182170   2.541859   3.095197   2.541561   1.095051
     8  H    2.182170   2.541561   2.541859   3.095197   1.095051
                    6          7          8
     6  H    0.000000
     7  H    1.766340   0.000000
     8  H    1.766340   1.766340   0.000000
 Stoichiometry    C2H6
 Framework group  D3[C3(C.C),X(H6)]
 Deg. of freedom     4
 Full point group                 D3      NOp   6
 Largest Abelian subgroup         C2      NOp   2
 Largest concise Abelian subgroup C2      NOp   2
                         Standard orientation:                         
 ---------------------------------------------------------------------
 Center     Atomic      Atomic             Coordinates (Angstroms)
 Number     Number       Type             X           Y           Z
 ---------------------------------------------------------------------
      1          6           0        0.000000    0.000000    0.765140
      2          1           0       -0.509712    0.883278    1.164077
      3          1           0        1.019797   -0.000215    1.164077
      4          1           0       -0.510085   -0.883063    1.164077
      5          6           0        0.000000    0.000000   -0.765140
      6          1           0        0.510085   -0.883063   -1.164077
      7          1           0       -1.019797   -0.000215   -1.164077
      8          1           0        0.509712    0.883278   -1.164077
 ---------------------------------------------------------------------
 Rotational constants (GHZ):     80.3624934     19.9054399     19.9054399

 **********************************************************************

            Population analysis using the SCF density.

 **********************************************************************

 Orbital symmetries:
       Occupied  (A1) (A2) (A1) (A2) (E) (E) (A1) (E) (E)
       Virtual   (A1) (A2) (E) (E) (E) (E) (A2) (A1) (E) (E) (E)
                 (E) (A2) (E) (E) (A1) (E) (E) (A2) (A1) (E) (E)
                 (A2) (E) (E) (A1) (A1) (A2) (E) (E) (E) (E) (E)
                 (E) (A2) (E) (E) (A1) (A2) (E) (E) (E) (E) (A1)
                 (A2) (E) (E) (E) (E) (A1) (A2)
 The electronic state is 1-A1.
 Alpha  occ. eigenvalues --  -10.17260 -10.17239  -0.74765  -0.61192  -0.42945
 Alpha  occ. eigenvalues --   -0.42945  -0.36302  -0.33920  -0.33920
 Alpha virt. eigenvalues --    0.10498   0.15619   0.16398   0.16398   0.19006
 Alpha virt. eigenvalues --    0.19006   0.24194   0.50806   0.53952   0.53952
 Alpha virt. eigenvalues --    0.61910   0.61910   0.66602   0.86649   0.86649
 Alpha virt. eigenvalues --    0.88160   0.89488   0.89488   0.95368   1.06488
 Alpha virt. eigenvalues --    1.32781   1.32781   1.44065   1.67853   1.67853
 Alpha virt. eigenvalues --    1.86099   2.05738   2.05782   2.06526   2.06526
 Alpha virt. eigenvalues --    2.08729   2.08729   2.26657   2.26657   2.33837
 Alpha virt. eigenvalues --    2.47988   2.47988   2.68982   2.77366   2.79961
 Alpha virt. eigenvalues --    2.79961   2.90643   2.90643   3.14671   3.23777
 Alpha virt. eigenvalues --    3.39669   3.39669   3.52135   3.52135   4.32120
 Alpha virt. eigenvalues --    4.57963
          Condensed to atoms (all electrons):
               1          2          3          4          5          6
     1  C    4.871505   0.391245   0.391245   0.391245   0.373880  -0.034822
     2  H    0.391245   0.608069  -0.033098  -0.033098  -0.034822   0.004854
     3  H    0.391245  -0.033098   0.608069  -0.033098  -0.034822  -0.004021
     4  H    0.391245  -0.033098  -0.033098   0.608069  -0.034822  -0.004012
     5  C    0.373880  -0.034822  -0.034822  -0.034822   4.871505   0.391245
     6  H   -0.034822   0.004854  -0.004021  -0.004012   0.391245   0.608069
     7  H   -0.034822  -0.004012   0.004854  -0.004021   0.391245  -0.033098
     8  H   -0.034822  -0.004021  -0.004012   0.004854   0.391245  -0.033098
               7          8
     1  C   -0.034822  -0.034822
     2  H   -0.004012  -0.004021
     3  H    0.004854  -0.004012
     4  H   -0.004021   0.004854
     5  C    0.391245   0.391245
     6  H   -0.033098  -0.033098
     7  H    0.608069  -0.033098
     8  H   -0.033098   0.608069
 Mulliken charges:
               1
     1  C   -0.314654
     2  H    0.104885
     3  H    0.104885
     4  H    0.104885
     5  C   -0.314654
     6  H    0.104885
     7  H    0.104885
     8  H    0.104885
 Sum of Mulliken charges =   0.00000
 Mulliken charges with hydrogens summed into heavy atoms:
               1
     1  C    0.000000
     5  C    0.000000
 Electronic spatial extent (au):  <R**2>=            109.5848
 Charge=              0.0000 electrons
 Dipole moment (field-independent basis, Debye):
    X=              0.0000    Y=              0.0000    Z=              0.0000  Tot=              0.0000
 Quadrupole moment (field-independent basis, Debye-Ang):
   XX=            -14.7241   YY=            -14.7241   ZZ=            -15.1795
   XY=              0.0000   XZ=              0.0000   YZ=              0.0000
 Traceless Quadrupole moment (field-independent basis, Debye-Ang):
   XX=              0.1518   YY=              0.1518   ZZ=             -0.3037
   XY=              0.0000   XZ=              0.0000   YZ=              0.0000
 Octapole moment (field-independent basis, Debye-Ang**2):
  XXX=              0.0000  YYY=              0.0006  ZZZ=              0.0000  XYY=              0.0000
  XXY=             -0.0006  XXZ=              0.0000  XZZ=              0.0000  YZZ=              0.0000
  YYZ=              0.0000  XYZ=              0.0000
 Hexadecapole moment (field-independent basis, Debye-Ang**3):
 XXXX=            -28.8592 YYYY=            -28.8592 ZZZZ=            -92.5498 XXXY=              0.0000
 XXXZ=              1.2057 YYYX=              0.0000 YYYZ=              0.0000 ZZZX=              0.0000
 ZZZY=              0.0000 XXYY=             -9.6197 XXZZ=            -19.1992 YYZZ=            -19.1992
 XXYZ=              0.0000 YYXZ=             -1.2057 ZZXY=              0.0000
 N-N= 4.213538662226D+01 E-N=-2.681047224502D+02  KE= 7.898693366521D+01
 Symmetry A    KE= 4.073861877085D+01
 Symmetry B    KE= 3.824831489436D+01
 1|1|UNPC-X500|FOpt|RB3LYP|6-31G(d,p)|C2H6|SOBEREVA|22-Dec-2015|0||# b3
 lyp/6-31G** opt freq||b3lyp/6-311G** opted||0,1|C,-1.1919590005,1.8128
 666554,0.7660654127|H,-2.2285995173,2.1603422117,0.827497639|H,-0.5496
 951325,2.698604057,0.7202056164|H,-0.9642149589,1.2886969365,1.7001507
 937|C,-0.9788974906,0.9062624468,-0.4481958916|H,0.0578438668,0.559130
 1865,-0.5098667389|H,-1.6208534426,0.0203128736,-0.4021236528|H,-1.207
 0502889,1.4303010414,-1.3822550941||Version=IA32W-G09RevD.01|State=1-A
 1|HF=-79.8387384|RMSD=2.039e-009|RMSF=5.867e-005|Dipole=0.,0.,0.|Quadr
 upole=0.1063167,-0.005979,-0.1003377,0.0279334,0.0374127,-0.1591958|PG
 =D03 [C3(C1.C1),X(H6)]||@


 THOUGH I SPEAK WITH THE TONGUES OF MEN AND OF ANGELS, 
 AND HAVE NOT LOVE,
 I AM BECOME AS SOUNDING BRASS, A TINKLING CYMBAL.
 AND THOUGH I HAVE THE GIFT OF PROPHECY,
 AND UNDERSTAND ALL MYSTERIES, AND ALL KNOWLEDGE.
 AND THOUGH I HAVE ALL FAITH, SO THAT I COULD REMOVE MOUNTAINS,
 AND HAVE NOT LOVE, I AM NOTHING.
 AND THOUGH I BESTOW ALL MY GOODS TO FEED THE POOR,
 AND THOUGH I GIVE MY BODY TO BE BURNED,
 AND HAVE NOT LOVE IT PROFITETH ME NOTHING.
 LOVE SUFFERETH LONG, AND IS KIND,
 LOVE ENVIETH NOT,
 LOVE VAUNTETH NOT ITSELF, IS NOT PUFFED UP,
 DOTH NOT BEHAVE ITSELF UNSEEMLY, SEEKETH NOT HER OWN,
 IS NOT EASILY PROVOKED, THINKETH NO EVIL,
 REJOICETH NOT IN INIQUITY, BUT REJOICETH IN THE TRUTH,
 BEARETH ALL THINGS, BELIEVETH ALL THINGS,
 HOPETH ALL THINGS, ENDURETH ALL THINGS.
 LOVE NEVER FAILETH, BUT WHETHER THERE BE PROPHECIES, THEY SHALL FAIL, 
 WHETHER THERE BE TONGUES, THEY SHALL CEASE,
 WHETHER THERE BE KNOWLEDGE, IT SHALL VANISH AWAY.
 FOR WE KNOW IN PART, AND WE PROPHESY IN PART.
 BUT WHEN THAT WHICH IS PERFECT IS COME, THEN THAT WHICH IS IN PART 
 SHALL BE DONE AWAY. 
 WHEN I WAS A CHILD, I SPAKE AS A CHILD, I UNDERSTOOD AS A CHILD, 
 I THOUGHT AS A CHILD.
 BUT WHEN I BECAME A MAN, I PUT AWAY CHILDISH THINGS.
 FOR NOW WE SEE THROUGH A GLASS, DARKLY, BUT THEN FACE TO FACE.
 NOW I KNOW IN PART. BUT THEN SHALL I KNOW EVEN AS ALSO I AM KNOWN.
 AND NOW ABIDETH FAITH, HOPE AND LOVE, THESE THREE.
 BUT THE GREATEST OF THESE IS LOVE.

                     I CORINTHIANS 13
 Job cpu time:       0 days  0 hours  0 minutes  5.0 seconds.
 File lengths (MBytes):  RWF=      5 Int=      0 D2E=      0 Chk=      1 Scr=      1
 Normal termination of Gaussian 09 at Tue Dec 22 17:40:50 2015.
 Link1:  Proceeding to internal job step number  2.
 ----------------------------------------------------------------------
 #N Geom=AllCheck Guess=TCheck SCRF=Check GenChk RB3LYP/6-31G(d,p) Freq
 ----------------------------------------------------------------------
 1/10=4,29=7,30=1,38=1,40=1/1,3;
 2/12=2,40=1/2;
 3/5=1,6=6,7=101,11=2,14=-4,16=1,25=1,30=1,70=2,71=2,74=-5,116=1,140=1/1,2,3;
 4/5=101/1;
 5/5=2,98=1/2;
 8/6=4,10=90,11=11/1;
 11/6=1,8=1,9=11,15=111,16=1/1,2,10;
 10/6=1/2;
 6/7=2,8=2,9=2,10=2,18=1,28=1/1;
 7/8=1,10=1,25=1/1,2,3,16;
 1/10=4,30=1/3;
 99//99;
 Structure from the checkpoint file:  "C:\gtest\ethane.chk"
 --------------------
 b3lyp/6-311G** opted
 --------------------
 Charge =  0 Multiplicity = 1
 Redundant internal coordinates found in file.
 C,0,-1.1919590005,1.8128666554,0.7660654127
 H,0,-2.2285995173,2.1603422117,0.827497639
 H,0,-0.5496951325,2.698604057,0.7202056164
 H,0,-0.9642149589,1.2886969365,1.7001507937
 C,0,-0.9788974906,0.9062624468,-0.4481958916
 H,0,0.0578438668,0.5591301865,-0.5098667389
 H,0,-1.6208534426,0.0203128736,-0.4021236528
 H,0,-1.2070502889,1.4303010414,-1.3822550941
 Recover connectivity data from disk.

 GradGradGradGradGradGradGradGradGradGradGradGradGradGradGradGradGradGrad
 Berny optimization.
 Initialization pass.
                           ----------------------------
                           !    Initial Parameters    !
                           ! (Angstroms and Degrees)  !
 --------------------------                            --------------------------
 ! Name  Definition              Value          Derivative Info.                !
 --------------------------------------------------------------------------------
 ! R1    R(1,2)                  1.0951         calculate D2E/DX2 analytically  !
 ! R2    R(1,3)                  1.0951         calculate D2E/DX2 analytically  !
 ! R3    R(1,4)                  1.0951         calculate D2E/DX2 analytically  !
 ! R4    R(1,5)                  1.5303         calculate D2E/DX2 analytically  !
 ! R5    R(5,6)                  1.0951         calculate D2E/DX2 analytically  !
 ! R6    R(5,7)                  1.0951         calculate D2E/DX2 analytically  !
 ! R7    R(5,8)                  1.0951         calculate D2E/DX2 analytically  !
 ! A1    A(2,1,3)              107.5128         calculate D2E/DX2 analytically  !
 ! A2    A(2,1,4)              107.5128         calculate D2E/DX2 analytically  !
 ! A3    A(2,1,5)              111.3651         calculate D2E/DX2 analytically  !
 ! A4    A(3,1,4)              107.5128         calculate D2E/DX2 analytically  !
 ! A5    A(3,1,5)              111.3651         calculate D2E/DX2 analytically  !
 ! A6    A(4,1,5)              111.3651         calculate D2E/DX2 analytically  !
 ! A7    A(1,5,6)              111.3651         calculate D2E/DX2 analytically  !
 ! A8    A(1,5,7)              111.3651         calculate D2E/DX2 analytically  !
 ! A9    A(1,5,8)              111.3651         calculate D2E/DX2 analytically  !
 ! A10   A(6,5,7)              107.5128         calculate D2E/DX2 analytically  !
 ! A11   A(6,5,8)              107.5128         calculate D2E/DX2 analytically  !
 ! A12   A(7,5,8)              107.5128         calculate D2E/DX2 analytically  !
 ! D1    D(2,1,5,6)            179.9758         calculate D2E/DX2 analytically  !
 ! D2    D(2,1,5,7)            -60.0242         calculate D2E/DX2 analytically  !
 ! D3    D(2,1,5,8)             59.9758         calculate D2E/DX2 analytically  !
 ! D4    D(3,1,5,6)             59.9758         calculate D2E/DX2 analytically  !
 ! D5    D(3,1,5,7)            179.9758         calculate D2E/DX2 analytically  !
 ! D6    D(3,1,5,8)            -60.0242         calculate D2E/DX2 analytically  !
 ! D7    D(4,1,5,6)            -60.0242         calculate D2E/DX2 analytically  !
 ! D8    D(4,1,5,7)             59.9758         calculate D2E/DX2 analytically  !
 ! D9    D(4,1,5,8)            179.9758         calculate D2E/DX2 analytically  !
 --------------------------------------------------------------------------------
 Trust Radius=3.00D-01 FncErr=1.00D-07 GrdErr=1.00D-07
 Number of steps in this run=      2 maximum allowed number of steps=      2.
 GradGradGradGradGradGradGradGradGradGradGradGradGradGradGradGradGradGrad

                          Input orientation:                          
 ---------------------------------------------------------------------
 Center     Atomic      Atomic             Coordinates (Angstroms)
 Number     Number       Type             X           Y           Z
 ---------------------------------------------------------------------
      1          6           0       -1.191959    1.812867    0.766065
      2          1           0       -2.228600    2.160342    0.827498
      3          1           0       -0.549695    2.698604    0.720206
      4          1           0       -0.964215    1.288697    1.700151
      5          6           0       -0.978897    0.906262   -0.448196
      6          1           0        0.057844    0.559130   -0.509867
      7          1           0       -1.620853    0.020313   -0.402124
      8          1           0       -1.207050    1.430301   -1.382255
 ---------------------------------------------------------------------
                    Distance matrix (angstroms):
                    1          2          3          4          5
     1  C    0.000000
     2  H    1.095051   0.000000
     3  H    1.095051   1.766340   0.000000
     4  H    1.095051   1.766340   1.766340   0.000000
     5  C    1.530280   2.182170   2.182170   2.182170   0.000000
     6  H    2.182170   3.095197   2.541561   2.541859   1.095051
     7  H    2.182170   2.541859   3.095197   2.541561   1.095051
     8  H    2.182170   2.541561   2.541859   3.095197   1.095051
                    6          7          8
     6  H    0.000000
     7  H    1.766340   0.000000
     8  H    1.766340   1.766340   0.000000
 Stoichiometry    C2H6
 Framework group  D3[C3(C.C),X(H6)]
 Deg. of freedom     4
 Full point group                 D3      NOp   6
 Largest Abelian subgroup         C2      NOp   2
 Largest concise Abelian subgroup C2      NOp   2
                         Standard orientation:                         
 ---------------------------------------------------------------------
 Center     Atomic      Atomic             Coordinates (Angstroms)
 Number     Number       Type             X           Y           Z
 ---------------------------------------------------------------------
      1          6           0        0.000000    0.000000    0.765140
      2          1           0       -0.509712    0.883278    1.164077
      3          1           0        1.019797   -0.000215    1.164077
      4          1           0       -0.510085   -0.883063    1.164077
      5          6           0        0.000000    0.000000   -0.765140
      6          1           0        0.510085   -0.883063   -1.164077
      7          1           0       -1.019797   -0.000215   -1.164077
      8          1           0        0.509712    0.883278   -1.164077
 ---------------------------------------------------------------------
 Rotational constants (GHZ):     80.3624934     19.9054399     19.9054399
 Standard basis: 6-31G(d,p) (6D, 7F)
 There are    30 symmetry adapted cartesian basis functions of A   symmetry.
 There are    30 symmetry adapted cartesian basis functions of B   symmetry.
 There are    30 symmetry adapted basis functions of A   symmetry.
 There are    30 symmetry adapted basis functions of B   symmetry.
    60 basis functions,    98 primitive gaussians,    60 cartesian basis functions
     9 alpha electrons        9 beta electrons
       nuclear repulsion energy        42.1353866223 Hartrees.
 NAtoms=    8 NActive=    8 NUniq=    2 SFac= 4.00D+00 NAtFMM=   60 NAOKFM=F Big=F
 Integral buffers will be    262144 words long.
 Raffenetti 2 integral format.
 Two-electron integral symmetry is turned on.
 One-electron integrals computed using PRISM.
 NBasis=    60 RedAO= T EigKep=  5.79D-03  NBF=    30    30
 NBsUse=    60 1.00D-06 EigRej= -1.00D+00 NBFU=    30    30
 Initial guess from the checkpoint file:  "C:\gtest\ethane.chk"
 B after Tr=     0.000000    0.000000    0.000000
         Rot=    1.000000    0.000000    0.000000    0.000000 Ang=   0.00 deg.
 Initial guess orbital symmetries:
       Occupied  (A1) (A2) (A1) (A2) (E) (E) (A1) (E) (E)
       Virtual   (A1) (A2) (E) (E) (E) (E) (A2) (A1) (E) (E) (E)
                 (E) (A2) (E) (E) (A1) (E) (E) (A2) (A1) (E) (E)
                 (A2) (E) (E) (A1) (A1) (A2) (E) (E) (E) (E) (E)
                 (E) (A2) (E) (E) (A1) (A2) (E) (E) (E) (E) (A1)
                 (A2) (E) (E) (E) (E) (A1) (A2)
 Keep R1 ints in memory in symmetry-blocked form, NReq=2584804.
 Requested convergence on RMS density matrix=1.00D-08 within 128 cycles.
 Requested convergence on MAX density matrix=1.00D-06.
 Requested convergence on             energy=1.00D-06.
 No special actions if energy rises.
 Skip diagonalization as Alpha Fock matrix is already diagonal.
 SCF Done:  E(RB3LYP) =  -79.8387384378     A.U. after    1 cycles
            NFock=  1  Conv=0.00D+00     -V/T= 2.0108
 DoSCS=F DFT=T ScalE2(SS,OS)=  1.000000  1.000000
 Range of M.O.s used for correlation:     1    60
 NBasis=    60 NAE=     9 NBE=     9 NFC=     0 NFV=     0
 NROrb=     60 NOA=     9 NOB=     9 NVA=    51 NVB=    51
 Symmetrizing basis deriv contribution to polar:
 IMax=3 JMax=2 DiffMx= 0.00D+00
 G2DrvN: will do     9 centers at a time, making    1 passes.
 Calling FoFCou, ICntrl=  3107 FMM=F I1Cent=   0 AccDes= 0.00D+00.
 End of G2Drv F.D. properties file   721 does not exist.
 End of G2Drv F.D. properties file   722 does not exist.
 End of G2Drv F.D. properties file   788 does not exist.
          IDoAtm=11111111
          Differentiating once with respect to electric field.
                with respect to dipole field.
          Differentiating once with respect to nuclear coordinates.
 Keep R1 ints in memory in symmetry-blocked form, NReq=2555035.
          There are     9 degrees of freedom in the 1st order CPHF.  IDoFFX=4 NUNeed=     9.
      9 vectors produced by pass  0 Test12= 5.10D-15 1.11D-08 XBig12= 1.24D+01 1.87D+00.
 AX will form     9 AO Fock derivatives at one time.
      9 vectors produced by pass  1 Test12= 5.10D-15 1.11D-08 XBig12= 4.35D-01 2.56D-01.
      9 vectors produced by pass  2 Test12= 5.10D-15 1.11D-08 XBig12= 4.38D-03 2.38D-02.
      9 vectors produced by pass  3 Test12= 5.10D-15 1.11D-08 XBig12= 1.87D-05 1.15D-03.
      9 vectors produced by pass  4 Test12= 5.10D-15 1.11D-08 XBig12= 8.90D-08 8.03D-05.
      8 vectors produced by pass  5 Test12= 5.10D-15 1.11D-08 XBig12= 8.56D-11 3.05D-06.
      3 vectors produced by pass  6 Test12= 5.10D-15 1.11D-08 XBig12= 7.33D-14 7.97D-08.
 InvSVY:  IOpt=1 It=  1 EMax= 4.44D-16
 Solved reduced A of dimension    56 with     9 vectors.
 Isotropic polarizability for W=    0.000000       23.38 Bohr**3.
 End of Minotr F.D. properties file   721 does not exist.
 End of Minotr F.D. properties file   722 does not exist.
 End of Minotr F.D. properties file   788 does not exist.

 **********************************************************************

            Population analysis using the SCF density.

 **********************************************************************

 Orbital symmetries:
       Occupied  (A1) (A2) (A1) (A2) (E) (E) (A1) (E) (E)
       Virtual   (A1) (A2) (E) (E) (E) (E) (A2) (A1) (E) (E) (E)
                 (E) (A2) (E) (E) (A1) (E) (E) (A2) (A1) (E) (E)
                 (A2) (E) (E) (A1) (A1) (A2) (E) (E) (E) (E) (E)
                 (E) (A2) (E) (E) (A1) (A2) (E) (E) (E) (E) (A1)
                 (A2) (E) (E) (E) (E) (A1) (A2)
 The electronic state is 1-A1.
 Alpha  occ. eigenvalues --  -10.17260 -10.17239  -0.74765  -0.61192  -0.42945
 Alpha  occ. eigenvalues --   -0.42945  -0.36302  -0.33920  -0.33920
 Alpha virt. eigenvalues --    0.10498   0.15619   0.16398   0.16398   0.19006
 Alpha virt. eigenvalues --    0.19006   0.24194   0.50806   0.53952   0.53952
 Alpha virt. eigenvalues --    0.61910   0.61910   0.66602   0.86649   0.86649
 Alpha virt. eigenvalues --    0.88160   0.89488   0.89488   0.95368   1.06488
 Alpha virt. eigenvalues --    1.32781   1.32781   1.44065   1.67853   1.67853
 Alpha virt. eigenvalues --    1.86099   2.05738   2.05782   2.06526   2.06526
 Alpha virt. eigenvalues --    2.08729   2.08729   2.26657   2.26657   2.33837
 Alpha virt. eigenvalues --    2.47988   2.47988   2.68982   2.77366   2.79961
 Alpha virt. eigenvalues --    2.79961   2.90643   2.90643   3.14671   3.23777
 Alpha virt. eigenvalues --    3.39669   3.39669   3.52135   3.52135   4.32120
 Alpha virt. eigenvalues --    4.57963
          Condensed to atoms (all electrons):
               1          2          3          4          5          6
     1  C    4.871505   0.391245   0.391245   0.391245   0.373880  -0.034822
     2  H    0.391245   0.608069  -0.033098  -0.033098  -0.034822   0.004854
     3  H    0.391245  -0.033098   0.608069  -0.033098  -0.034822  -0.004021
     4  H    0.391245  -0.033098  -0.033098   0.608069  -0.034822  -0.004012
     5  C    0.373880  -0.034822  -0.034822  -0.034822   4.871505   0.391245
     6  H   -0.034822   0.004854  -0.004021  -0.004012   0.391245   0.608069
     7  H   -0.034822  -0.004012   0.004854  -0.004021   0.391245  -0.033098
     8  H   -0.034822  -0.004021  -0.004012   0.004854   0.391245  -0.033098
               7          8
     1  C   -0.034822  -0.034822
     2  H   -0.004012  -0.004021
     3  H    0.004854  -0.004012
     4  H   -0.004021   0.004854
     5  C    0.391245   0.391245
     6  H   -0.033098  -0.033098
     7  H    0.608069  -0.033098
     8  H   -0.033098   0.608069
 Mulliken charges:
               1
     1  C   -0.314654
     2  H    0.104885
     3  H    0.104885
     4  H    0.104885
     5  C   -0.314654
     6  H    0.104885
     7  H    0.104885
     8  H    0.104885
 Sum of Mulliken charges =   0.00000
 Mulliken charges with hydrogens summed into heavy atoms:
               1
     1  C    0.000000
     5  C    0.000000
 APT charges:
               1
     1  C    0.105906
     2  H   -0.035301
     3  H   -0.035302
     4  H   -0.035301
     5  C    0.105906
     6  H   -0.035301
     7  H   -0.035302
     8  H   -0.035301
 Sum of APT charges =   0.00000
 APT charges with hydrogens summed into heavy atoms:
               1
     1  C    0.000001
     5  C    0.000001
 Electronic spatial extent (au):  <R**2>=            109.5848
 Charge=              0.0000 electrons
 Dipole moment (field-independent basis, Debye):
    X=              0.0000    Y=              0.0000    Z=              0.0000  Tot=              0.0000
 Quadrupole moment (field-independent basis, Debye-Ang):
   XX=            -14.7241   YY=            -14.7241   ZZ=            -15.1795
   XY=              0.0000   XZ=              0.0000   YZ=              0.0000
 Traceless Quadrupole moment (field-independent basis, Debye-Ang):
   XX=              0.1518   YY=              0.1518   ZZ=             -0.3037
   XY=              0.0000   XZ=              0.0000   YZ=              0.0000
 Octapole moment (field-independent basis, Debye-Ang**2):
  XXX=              0.0000  YYY=              0.0006  ZZZ=              0.0000  XYY=              0.0000
  XXY=             -0.0006  XXZ=              0.0000  XZZ=              0.0000  YZZ=              0.0000
  YYZ=              0.0000  XYZ=              0.0000
 Hexadecapole moment (field-independent basis, Debye-Ang**3):
 XXXX=            -28.8592 YYYY=            -28.8592 ZZZZ=            -92.5498 XXXY=              0.0000
 XXXZ=              1.2057 YYYX=              0.0000 YYYZ=              0.0000 ZZZX=              0.0000
 ZZZY=              0.0000 XXYY=             -9.6197 XXZZ=            -19.1992 YYZZ=            -19.1992
 XXYZ=              0.0000 YYXZ=             -1.2057 ZZXY=              0.0000
 N-N= 4.213538662226D+01 E-N=-2.681047224502D+02  KE= 7.898693366521D+01
 Symmetry A    KE= 4.073861877085D+01
 Symmetry B    KE= 3.824831489436D+01
  Exact polarizability:  22.819   0.000  22.819   0.000   0.000  24.490
 Approx polarizability:  29.607   0.000  29.607   0.000   0.000  28.562
 Calling FoFJK, ICntrl=    100127 FMM=F ISym2X=1 I1Cent= 0 IOpClX= 0 NMat=1 NMatS=1 NMatT=0.
 Full mass-weighted force constant matrix:
 Low frequencies ---  -23.4336  -23.3739   -9.1196    0.0268    0.0277    0.1775
 Low frequencies ---  312.3730  827.2447  827.2449
 Diagonal vibrational polarizability:
        0.4560703       0.4561189       0.1691107
 Harmonic frequencies (cm**-1), IR intensities (KM/Mole), Raman scattering
 activities (A**4/AMU), depolarization ratios for plane and unpolarized
 incident light, reduced masses (AMU), force constants (mDyne/A),
 and normal coordinates:
                      1                      2                      3
                     A1                      E                      E
 Frequencies --    312.3730               827.2447               827.2449
 Red. masses --      1.0078                 1.0579                 1.0579
 Frc consts  --      0.0579                 0.4265                 0.4265
 IR Inten    --      0.0000                 4.6227                 4.6214
  Atom  AN      X      Y      Z        X      Y      Z        X      Y      Z
     1   6     0.00   0.00   0.00     0.00  -0.05   0.00    -0.05   0.00   0.00
     2   1    -0.35  -0.20   0.00     0.03   0.17  -0.44     0.21   0.03   0.25
     3   1     0.00   0.41   0.00     0.00   0.22   0.00     0.16   0.00  -0.51
     4   1     0.35  -0.20   0.00    -0.03   0.17   0.44     0.21  -0.03   0.25
     5   6     0.00   0.00   0.00     0.00  -0.05   0.00    -0.05   0.00   0.00
     6   1    -0.35  -0.20   0.00     0.03   0.17  -0.44     0.21   0.03   0.25
     7   1     0.00   0.41   0.00     0.00   0.22   0.00     0.16   0.00  -0.51
     8   1     0.35  -0.20   0.00    -0.03   0.17   0.44     0.21  -0.03   0.25
                      4                      5                      6
                     A1                      E                      E
 Frequencies --   1005.1875              1225.7528              1225.7559
 Red. masses --      3.2535                 1.4669                 1.4669
 Frc consts  --      1.9369                 1.2986                 1.2986
 IR Inten    --      0.0000                 0.0000                 0.0000
  Atom  AN      X      Y      Z        X      Y      Z        X      Y      Z
     1   6     0.00   0.00   0.32     0.14   0.00   0.00     0.00   0.14   0.00
     2   1     0.01  -0.01   0.36    -0.21  -0.09  -0.25    -0.09  -0.11   0.43
     3   1    -0.01   0.00   0.36    -0.06   0.00   0.50     0.00  -0.26   0.00
     4   1     0.01   0.01   0.36    -0.21   0.09  -0.25     0.09  -0.11  -0.43
     5   6     0.00   0.00  -0.32    -0.14   0.00   0.00     0.00  -0.14   0.00
     6   1    -0.01   0.01  -0.36     0.21   0.09   0.25     0.09   0.11  -0.43
     7   1     0.01   0.00  -0.36     0.06   0.00  -0.50     0.00   0.26   0.00
     8   1    -0.01  -0.01  -0.36     0.21  -0.09   0.25    -0.09   0.11   0.43
                      7                      8                      9
                     A2                     A1                      E
 Frequencies --   1417.6580              1439.8969              1516.7025
 Red. masses --      1.1980                 1.2564                 1.0187
 Frc consts  --      1.4185                 1.5347                 1.3807
 IR Inten    --      0.1469                 0.0000                 0.0001
  Atom  AN      X      Y      Z        X      Y      Z        X      Y      Z
     1   6     0.00   0.00   0.09     0.00   0.00  -0.11     0.00  -0.02   0.00
     2   1    -0.08   0.14  -0.37     0.09  -0.15   0.36     0.26   0.03   0.25
     3   1     0.17   0.00  -0.37    -0.17   0.00   0.36     0.00   0.49   0.00
     4   1    -0.08  -0.14  -0.37     0.09   0.15   0.36    -0.26   0.04  -0.25
     5   6     0.00   0.00   0.09     0.00   0.00   0.11     0.00   0.02   0.00
     6   1    -0.08   0.14  -0.37    -0.09   0.15  -0.36    -0.26  -0.04  -0.25
     7   1     0.17   0.00  -0.37     0.17   0.00  -0.36     0.00  -0.49   0.00
     8   1    -0.08  -0.14  -0.37    -0.09  -0.15  -0.36     0.26  -0.03   0.25
                     10                     11                     12
                      E                      E                      E
 Frequencies --   1516.7032              1521.3513              1521.3532
 Red. masses --      1.0187                 1.0617                 1.0617
 Frc consts  --      1.3807                 1.4478                 1.4478
 IR Inten    --      0.0001                 6.8793                 6.8815
  Atom  AN      X      Y      Z        X      Y      Z        X      Y      Z
     1   6    -0.02   0.00   0.00     0.00   0.05   0.00     0.05   0.00   0.00
     2   1     0.34   0.26  -0.14    -0.27  -0.04  -0.20    -0.36  -0.28   0.11
     3   1    -0.12   0.00   0.29     0.00  -0.52   0.00     0.12   0.00  -0.23
     4   1     0.33  -0.26  -0.15     0.28  -0.04   0.19    -0.35   0.28   0.11
     5   6     0.02   0.00   0.00     0.00   0.05   0.00     0.05   0.00   0.00
     6   1    -0.33  -0.26   0.15    -0.28  -0.04  -0.19    -0.35  -0.28   0.11
     7   1     0.12   0.00  -0.29     0.00  -0.52   0.00     0.12   0.00  -0.23
     8   1    -0.34   0.26   0.14     0.27  -0.04   0.20    -0.36   0.28   0.11
                     13                     14                     15
                     A1                     A2                      E
 Frequencies --   3043.6146              3044.7568              3099.3034
 Red. masses --      1.0368                 1.0343                 1.1020
 Frc consts  --      5.6589                 5.6495                 6.2365
 IR Inten    --      0.0000                57.5788                 0.0000
  Atom  AN      X      Y      Z        X      Y      Z        X      Y      Z
     1   6     0.00   0.00   0.04     0.00   0.00  -0.03    -0.07   0.00   0.00
     2   1     0.19  -0.33  -0.14    -0.19   0.33   0.14     0.12  -0.24  -0.10
     3   1    -0.38   0.00  -0.14     0.38   0.00   0.14     0.54   0.00   0.20
     4   1     0.19   0.33  -0.14    -0.19  -0.33   0.14     0.12   0.24  -0.10
     5   6     0.00   0.00  -0.04     0.00   0.00  -0.03     0.07   0.00   0.00
     6   1    -0.19   0.33   0.14    -0.19   0.33   0.14    -0.12   0.24   0.10
     7   1     0.38   0.00   0.14     0.38   0.00   0.14    -0.54   0.00  -0.20
     8   1    -0.19  -0.33   0.14    -0.19  -0.33   0.14    -0.12  -0.24   0.10
                     16                     17                     18
                      E                      E                      E
 Frequencies --   3099.3035              3123.1881              3123.1899
 Red. masses --      1.1020                 1.1030                 1.1030
 Frc consts  --      6.2365                 6.3391                 6.3391
 IR Inten    --      0.0000                70.4423                70.4345
  Atom  AN      X      Y      Z        X      Y      Z        X      Y      Z
     1   6     0.00  -0.07   0.00     0.00   0.07   0.00     0.07   0.00   0.00
     2   1    -0.24   0.40   0.18     0.24  -0.40  -0.18    -0.12   0.24   0.10
     3   1     0.00  -0.02   0.00     0.00   0.01   0.00    -0.54   0.00  -0.21
     4   1     0.24   0.40  -0.18    -0.24  -0.40   0.18    -0.12  -0.24   0.10
     5   6     0.00   0.07   0.00     0.00   0.07   0.00     0.07   0.00   0.00
     6   1     0.24  -0.40  -0.18     0.24  -0.40  -0.18    -0.12   0.24   0.10
     7   1     0.00   0.02   0.00     0.00   0.01   0.00    -0.54   0.00  -0.21
     8   1    -0.24  -0.40   0.18    -0.24  -0.40   0.18    -0.12  -0.24   0.10

 -------------------
 - Thermochemistry -
 -------------------
 Temperature   298.150 Kelvin.  Pressure   1.00000 Atm.
 Atom     1 has atomic number  6 and mass  12.00000
 Atom     2 has atomic number  1 and mass   1.00783
 Atom     3 has atomic number  1 and mass   1.00783
 Atom     4 has atomic number  1 and mass   1.00783
 Atom     5 has atomic number  6 and mass  12.00000
 Atom     6 has atomic number  1 and mass   1.00783
 Atom     7 has atomic number  1 and mass   1.00783
 Atom     8 has atomic number  1 and mass   1.00783
 Molecular mass:    30.04695 amu.
 Principal axes and moments of inertia in atomic units:
                           1         2         3
     Eigenvalues --    22.45751  90.66573  90.66573
           X            0.00000   0.20040   0.97971
           Y            0.00000   0.97971  -0.20040
           Z            1.00000   0.00000   0.00000
 This molecule is a prolate symmetric top.
 Rotational symmetry number  6.
 Rotational temperatures (Kelvin)      3.85679     0.95531     0.95531
 Rotational constants (GHZ):          80.36249    19.90544    19.90544
 Zero-point vibrational energy     196729.4 (Joules/Mol)
                                   47.01944 (Kcal/Mol)
 Warning -- explicit consideration of   1 degrees of freedom as
           vibrations may cause significant error
 Vibrational temperatures:    449.43  1190.22  1190.22  1446.24  1763.58
          (Kelvin)           1763.59  2039.69  2071.69  2182.19  2182.19
                             2188.88  2188.89  4379.08  4380.72  4459.20
                             4459.20  4493.57  4493.57
 
 Zero-point correction=                           0.074930 (Hartree/Particle)
 Thermal correction to Energy=                    0.078407
 Thermal correction to Enthalpy=                  0.079351
 Thermal correction to Gibbs Free Energy=         0.053510
 Sum of electronic and zero-point Energies=            -79.763808
 Sum of electronic and thermal Energies=               -79.760331
 Sum of electronic and thermal Enthalpies=             -79.759387
 Sum of electronic and thermal Free Energies=          -79.785229
 
                     E (Thermal)             CV                S
                      KCal/Mol        Cal/Mol-Kelvin    Cal/Mol-Kelvin
 Total                   49.201             10.047             54.388
 Electronic               0.000              0.000              0.000
 Translational            0.889              2.981             36.134
 Rotational               0.889              2.981             16.291
 Vibrational             47.424              4.086              1.964
 Vibration     1          0.701              1.650              1.350
                       Q            Log10(Q)             Ln(Q)
 Total Bot       0.243905D-24        -24.612779        -56.673018
 Total V=0       0.712315D+10          9.852672         22.686616
 Vib (Bot)       0.464779D-34        -34.332754        -79.054087
 Vib (Bot)    1  0.604507D+00         -0.218598         -0.503341
 Vib (V=0)       0.135737D+01          0.132697          0.305546
 Vib (V=0)    1  0.128449D+01          0.108732          0.250364
 Electronic      0.100000D+01          0.000000          0.000000
 Translational   0.647375D+07          6.811156         15.683266
 Rotational      0.810623D+03          2.908819          6.697803
 ***** Axes restored to original set *****
 -------------------------------------------------------------------
 Center     Atomic                   Forces (Hartrees/Bohr)
 Number     Number              X              Y              Z
 -------------------------------------------------------------------
      1        6           0.000027077   -0.000115216   -0.000154315
      2        1           0.000006097    0.000017982    0.000028296
      3        1          -0.000011946    0.000012073    0.000029542
      4        1          -0.000007624    0.000027276    0.000018949
      5        6          -0.000027077    0.000115216    0.000154315
      6        1          -0.000006058   -0.000017848   -0.000028389
      7        1           0.000012066   -0.000012155   -0.000029459
      8        1           0.000007466   -0.000027327   -0.000018938
 -------------------------------------------------------------------
 Cartesian Forces:  Max     0.000154315 RMS     0.000058669
 FormGI is forming the generalized inverse of G from B-inverse, IUseBI=4.

 GradGradGradGradGradGradGradGradGradGradGradGradGradGradGradGradGradGrad
 Berny optimization.
 Internal  Forces:  Max     0.000097706 RMS     0.000028958
 Search for a local minimum.
 Step number   1 out of a maximum of    2
 All quantities printed in internal units (Hartrees-Bohrs-Radians)
 Second derivative matrix not updated -- analytic derivatives used.
 ITU=  0
     Eigenvalues ---    0.00230   0.04547   0.04548   0.04754   0.04754
     Eigenvalues ---    0.12161   0.12411   0.12411   0.12561   0.17816
     Eigenvalues ---    0.17817   0.30421   0.33502   0.33502   0.33760
     Eigenvalues ---    0.33760   0.34508   0.34693
 Angle between quadratic step and forces=  12.97 degrees.
 Linear search not attempted -- first point.
 Iteration  1 RMS(Cart)=  0.00018335 RMS(Int)=  0.00000005
 Iteration  2 RMS(Cart)=  0.00000005 RMS(Int)=  0.00000003
 ClnCor:  largest displacement from symmetrization is 2.88D-09 for atom     4.
 Variable       Old X    -DE/DX   Delta X   Delta X   Delta X     New X
                                 (Linear)    (Quad)   (Total)
    R1        2.06935   0.00000   0.00000   0.00003   0.00003   2.06938
    R2        2.06935   0.00000   0.00000   0.00003   0.00003   2.06938
    R3        2.06935   0.00000   0.00000   0.00003   0.00003   2.06938
    R4        2.89181  -0.00010   0.00000  -0.00054  -0.00054   2.89127
    R5        2.06935   0.00000   0.00000   0.00003   0.00003   2.06938
    R6        2.06935   0.00000   0.00000   0.00003   0.00003   2.06938
    R7        2.06935   0.00000   0.00000   0.00003   0.00003   2.06938
    A1        1.87645  -0.00004   0.00000  -0.00031  -0.00031   1.87614
    A2        1.87645  -0.00004   0.00000  -0.00031  -0.00031   1.87614
    A3        1.94369   0.00003   0.00000   0.00029   0.00029   1.94398
    A4        1.87645  -0.00004   0.00000  -0.00031  -0.00031   1.87614
    A5        1.94369   0.00003   0.00000   0.00029   0.00029   1.94398
    A6        1.94369   0.00003   0.00000   0.00029   0.00029   1.94398
    A7        1.94369   0.00003   0.00000   0.00029   0.00029   1.94398
    A8        1.94369   0.00003   0.00000   0.00029   0.00029   1.94398
    A9        1.94369   0.00003   0.00000   0.00029   0.00029   1.94398
   A10        1.87645  -0.00004   0.00000  -0.00031  -0.00031   1.87614
   A11        1.87645  -0.00004   0.00000  -0.00031  -0.00031   1.87614
   A12        1.87645  -0.00004   0.00000  -0.00031  -0.00031   1.87614
    D1        3.14117   0.00000   0.00000  -0.00002  -0.00002   3.14115
    D2       -1.04762   0.00000   0.00000  -0.00002  -0.00002  -1.04764
    D3        1.04678   0.00000   0.00000  -0.00002  -0.00002   1.04675
    D4        1.04678   0.00000   0.00000  -0.00002  -0.00002   1.04675
    D5        3.14117   0.00000   0.00000  -0.00002  -0.00002   3.14115
    D6       -1.04762   0.00000   0.00000  -0.00002  -0.00002  -1.04764
    D7       -1.04762   0.00000   0.00000  -0.00002  -0.00002  -1.04764
    D8        1.04678   0.00000   0.00000  -0.00002  -0.00002   1.04675
    D9        3.14117   0.00000   0.00000  -0.00002  -0.00002   3.14115
         Item               Value     Threshold  Converged?
 Maximum Force            0.000098     0.000450     YES
 RMS     Force            0.000029     0.000300     YES
 Maximum Displacement     0.000333     0.001800     YES
 RMS     Displacement     0.000183     0.001200     YES
 Predicted change in Energy=-8.879089D-08
 Optimization completed.
    -- Stationary point found.
                           ----------------------------
                           !   Optimized Parameters   !
                           ! (Angstroms and Degrees)  !
 --------------------------                            --------------------------
 ! Name  Definition              Value          Derivative Info.                !
 --------------------------------------------------------------------------------
 ! R1    R(1,2)                  1.0951         -DE/DX =    0.0                 !
 ! R2    R(1,3)                  1.0951         -DE/DX =    0.0                 !
 ! R3    R(1,4)                  1.0951         -DE/DX =    0.0                 !
 ! R4    R(1,5)                  1.5303         -DE/DX =   -0.0001              !
 ! R5    R(5,6)                  1.0951         -DE/DX =    0.0                 !
 ! R6    R(5,7)                  1.0951         -DE/DX =    0.0                 !
 ! R7    R(5,8)                  1.0951         -DE/DX =    0.0                 !
 ! A1    A(2,1,3)              107.5128         -DE/DX =    0.0                 !
 ! A2    A(2,1,4)              107.5128         -DE/DX =    0.0                 !
 ! A3    A(2,1,5)              111.3651         -DE/DX =    0.0                 !
 ! A4    A(3,1,4)              107.5128         -DE/DX =    0.0                 !
 ! A5    A(3,1,5)              111.3651         -DE/DX =    0.0                 !
 ! A6    A(4,1,5)              111.3651         -DE/DX =    0.0                 !
 ! A7    A(1,5,6)              111.3651         -DE/DX =    0.0                 !
 ! A8    A(1,5,7)              111.3651         -DE/DX =    0.0                 !
 ! A9    A(1,5,8)              111.3651         -DE/DX =    0.0                 !
 ! A10   A(6,5,7)              107.5128         -DE/DX =    0.0                 !
 ! A11   A(6,5,8)              107.5128         -DE/DX =    0.0                 !
 ! A12   A(7,5,8)              107.5128         -DE/DX =    0.0                 !
 ! D1    D(2,1,5,6)            179.9758         -DE/DX =    0.0                 !
 ! D2    D(2,1,5,7)            -60.0242         -DE/DX =    0.0                 !
 ! D3    D(2,1,5,8)             59.9758         -DE/DX =    0.0                 !
 ! D4    D(3,1,5,6)             59.9758         -DE/DX =    0.0                 !
 ! D5    D(3,1,5,7)            179.9758         -DE/DX =    0.0                 !
 ! D6    D(3,1,5,8)            -60.0242         -DE/DX =    0.0                 !
 ! D7    D(4,1,5,6)            -60.0242         -DE/DX =    0.0                 !
 ! D8    D(4,1,5,7)             59.9758         -DE/DX =    0.0                 !
 ! D9    D(4,1,5,8)            179.9758         -DE/DX =    0.0                 !
 --------------------------------------------------------------------------------
 GradGradGradGradGradGradGradGradGradGradGradGradGradGradGradGradGradGrad

 1|1|UNPC-X500|Freq|RB3LYP|6-31G(d,p)|C2H6|SOBEREVA|22-Dec-2015|0||#N G
 eom=AllCheck Guess=TCheck SCRF=Check GenChk RB3LYP/6-31G(d,p) Freq||b3
 lyp/6-311G** opted||0,1|C,-1.1919590005,1.8128666554,0.7660654127|H,-2
 .2285995173,2.1603422117,0.827497639|H,-0.5496951325,2.698604057,0.720
 2056164|H,-0.9642149589,1.2886969365,1.7001507937|C,-0.9788974906,0.90
 62624468,-0.4481958916|H,0.0578438668,0.5591301865,-0.5098667389|H,-1.
 6208534426,0.0203128736,-0.4021236528|H,-1.2070502889,1.4303010414,-1.
 3822550941||Version=IA32W-G09RevD.01|State=1-A1|HF=-79.8387384|RMSD=0.
 000e+000|RMSF=5.867e-005|ZeroPoint=0.0749303|Thermal=0.0784073|Dipole=
 0.,0.,0.|DipoleDeriv=0.1147828,0.0023278,0.0031625,0.0023322,0.1054176
 ,-0.0132734,0.0031208,-0.0133099,0.0975166,-0.1466247,0.0830301,0.0316
 913,0.0692182,0.0163887,-0.0347141,0.0118032,-0.0288469,0.0243323,-0.0
 182841,-0.1112104,0.0035849,-0.0988786,-0.1129687,-0.0303467,0.0159013
 ,-0.0125124,0.0253462,0.0501238,0.0258364,-0.0384108,0.0273402,-0.0088
 308,0.0783507,-0.0308377,0.0546628,-0.1471968,0.1147828,0.0023542,0.00
 31428,0.0023058,0.1054176,-0.013278,0.0031405,-0.0133053,0.0975166,-0.
 1466672,0.082975,0.0317412,0.069141,0.0164306,-0.0347037,0.0118536,-0.
 0288873,0.0243329,-0.0182012,-0.1111721,0.0036205,-0.0988681,-0.113041
 7,-0.0303246,0.0159086,-0.0124516,0.0253363,0.0500835,0.025866,-0.0385
 058,0.0273943,-0.0087998,0.0783159,-0.0308857,0.0546447,-0.1471874|Pol
 ar=22.8513001,-0.1379855,23.4053466,-0.1845333,0.7855327,23.8710588|PG
 =D03 [C3(C1.C1),X(H6)]|NImag=0||0.57008336,0.00785678,0.53850386,0.010
 52153,-0.04476999,0.51196588,-0.28668352,0.07717476,0.01070015,0.30941
 065,0.07672712,-0.07385466,-0.00262012,-0.08564907,0.07710992,0.010060
 96,-0.00243271,-0.04869794,-0.01239913,0.00652220,0.05151516,-0.141730
 04,-0.12550411,0.00832751,-0.01764763,-0.02592471,0.00231104,0.1493706
 4,-0.12511036,-0.21843510,0.01249583,0.00629355,0.00977510,-0.00053294
 ,0.13768765,0.23675526,0.00872381,0.01307073,-0.04907124,0.00011244,0.
 00082186,-0.00115893,-0.01023965,-0.01034490,0.05190983,-0.06121901,0.
 02720810,-0.04732073,-0.00560010,0.01576049,-0.02742911,0.00452889,-0.
 00945036,0.01799262,0.06050608,0.02725564,-0.11242597,0.11050766,0.001
 07584,-0.00554517,0.00749989,0.00715471,-0.01271659,0.02188069,-0.0306
 9068,0.11960113,-0.04707424,0.10974540,-0.23559115,-0.00000414,-0.0012
 7038,0.00211381,0.00019920,0.00061212,-0.00084376,0.05123110,-0.117841
 33,0.25792852,-0.08267757,0.00994067,0.01330425,-0.00220654,0.01950051
 ,0.02738240,0.00375844,-0.01111411,-0.01740313,0.00067477,-0.00505936,
 -0.00551187,0.57008336,0.00993555,-0.12261425,-0.05662009,0.00073639,-
 0.00681038,-0.00863523,0.00560098,-0.01568759,-0.02318247,-0.00300116,
 0.01132628,0.01282609,0.00785679,0.53850386,0.01330808,-0.05661920,-0.
 15617860,0.00037874,-0.00069814,-0.00144021,-0.00071318,0.00103120,0.0
 0147082,0.00479386,-0.01932734,-0.02245818,0.01052153,-0.04476999,0.51
 196588,-0.00220420,0.00073538,0.00037811,0.00174763,0.00015465,0.00053
 965,0.00068760,0.00035825,0.00018011,0.00029055,-0.00014162,0.00049090
 ,-0.28672547,0.07711084,0.01075609,0.30945856,0.01950939,-0.00681074,-
 0.00070244,0.00015538,-0.00174902,-0.00388795,0.00005439,0.00026119,0.
 00082175,-0.00063297,0.00081615,0.00031199,0.07666747,-0.07378910,-0.0
 0262648,-0.08557786,0.07703949,0.02737833,-0.00862782,-0.00144220,0.00
 053949,-0.00388675,-0.00436601,-0.00058028,0.00055837,0.00109887,0.000
 12065,0.00090611,0.00093346,0.01011427,-0.00243795,-0.04872156,-0.0124
 6057,0.00653048,0.05153768,0.00375314,0.00559499,-0.00071514,0.0006887
 8,0.00006146,-0.00057916,0.00105688,0.00123845,0.00115251,-0.00002354,
 -0.00030724,-0.00045918,-0.14165726,-0.12546979,0.00836225,-0.01763932
 ,-0.02593455,0.00231969,0.14928588,-0.01110880,-0.01568462,0.00103370,
 0.00035518,0.00025621,0.00055615,0.00123931,-0.00098256,-0.00377376,0.
 00009410,0.00103004,-0.00004540,-0.12507158,-0.21852002,0.01253325,0.0
 0628333,0.00976781,-0.00053265,0.13764821,0.23684986,-0.01740146,-0.02
 319026,0.00147314,0.00018005,0.00081851,0.00109517,0.00115306,-0.00377
 473,-0.00444172,-0.00051527,0.00071333,0.00104116,0.00875690,0.0131062
 2,-0.04905909,0.00011918,0.00082813,-0.00115995,-0.01027602,-0.0103873
 5,0.05189999,0.00067772,-0.00300399,0.00480379,0.00029112,-0.00063091,
 0.00011328,-0.00002519,0.00009625,-0.00051897,0.00084247,0.00071199,0.
 00112853,-0.06124984,0.02723200,-0.04740715,-0.00561520,0.01575765,-0.
 02743141,0.00453568,-0.00944079,0.01798316,0.06054293,-0.00506373,0.01
 132366,-0.01932382,-0.00014268,0.00081787,0.00091089,-0.00030898,0.001
 02888,0.00070516,0.00071158,-0.00208654,-0.00433870,0.02728220,-0.1124
 0661,0.11047760,0.00107610,-0.00553623,0.00749009,0.00716777,-0.012718
 25,0.02188569,-0.03072245,0.11957696,-0.00551680,0.01282475,-0.0224585
 1,0.00049245,0.00031277,0.00093867,-0.00045781,-0.00004554,0.00103648,
 0.00112725,-0.00433914,-0.00312334,-0.04716488,0.10971415,-0.23557968,
 -0.00000333,-0.00127568,0.00211997,0.00019476,0.00061566,-0.00084889,0
 .05132892,-0.11780716,0.25791584||-0.00002708,0.00011522,0.00015432,-0
 .00000610,-0.00001798,-0.00002830,0.00001195,-0.00001207,-0.00002954,0
 .00000762,-0.00002728,-0.00001895,0.00002708,-0.00011522,-0.00015432,0
 .00000606,0.00001785,0.00002839,-0.00001207,0.00001216,0.00002946,-0.0
 0000747,0.00002733,0.00001894|||@


 THOUGH I SPEAK WITH THE TONGUES OF MEN AND OF ANGELS, 
 AND HAVE NOT LOVE,
 I AM BECOME AS SOUNDING BRASS, A TINKLING CYMBAL.
 AND THOUGH I HAVE THE GIFT OF PROPHECY,
 AND UNDERSTAND ALL MYSTERIES, AND ALL KNOWLEDGE.
 AND THOUGH I HAVE ALL FAITH, SO THAT I COULD REMOVE MOUNTAINS,
 AND HAVE NOT LOVE, I AM NOTHING.
 AND THOUGH I BESTOW ALL MY GOODS TO FEED THE POOR,
 AND THOUGH I GIVE MY BODY TO BE BURNED,
 AND HAVE NOT LOVE IT PROFITETH ME NOTHING.
 LOVE SUFFERETH LONG, AND IS KIND,
 LOVE ENVIETH NOT,
 LOVE VAUNTETH NOT ITSELF, IS NOT PUFFED UP,
 DOTH NOT BEHAVE ITSELF UNSEEMLY, SEEKETH NOT HER OWN,
 IS NOT EASILY PROVOKED, THINKETH NO EVIL,
 REJOICETH NOT IN INIQUITY, BUT REJOICETH IN THE TRUTH,
 BEARETH ALL THINGS, BELIEVETH ALL THINGS,
 HOPETH ALL THINGS, ENDURETH ALL THINGS.
 LOVE NEVER FAILETH, BUT WHETHER THERE BE PROPHECIES, THEY SHALL FAIL, 
 WHETHER THERE BE TONGUES, THEY SHALL CEASE,
 WHETHER THERE BE KNOWLEDGE, IT SHALL VANISH AWAY.
 FOR WE KNOW IN PART, AND WE PROPHESY IN PART.
 BUT WHEN THAT WHICH IS PERFECT IS COME, THEN THAT WHICH IS IN PART 
 SHALL BE DONE AWAY. 
 WHEN I WAS A CHILD, I SPAKE AS A CHILD, I UNDERSTOOD AS A CHILD, 
 I THOUGHT AS A CHILD.
 BUT WHEN I BECAME A MAN, I PUT AWAY CHILDISH THINGS.
 FOR NOW WE SEE THROUGH A GLASS, DARKLY, BUT THEN FACE TO FACE.
 NOW I KNOW IN PART. BUT THEN SHALL I KNOW EVEN AS ALSO I AM KNOWN.
 AND NOW ABIDETH FAITH, HOPE AND LOVE, THESE THREE.
 BUT THE GREATEST OF THESE IS LOVE.

                     I CORINTHIANS 13
 Job cpu time:       0 days  0 hours  0 minutes  8.0 seconds.
 File lengths (MBytes):  RWF=      5 Int=      0 D2E=      0 Chk=      1 Scr=      1
 Normal termination of Gaussian 09 at Tue Dec 22 17:40:58 2015.
