    4    4  300    1
  0.1242933E+02  0.3289000E-09  0.3289002E-09  0.5307000E-09  0.5000000E-15
  1.000000000000000E-004
  CAR 
 unknown system                          
     36     36     32
 
  0.0000000E+00  0.0000000E+00  0.0000000E+00  0.2469136E-02
    1      -16.898980   1.000000
    2      -16.207242   1.000000
    3       -4.574810   1.000000
    4       -4.574661   1.000000
    5       -4.532017   1.000000
    6       -4.458030   1.000000
    7       -4.387654   1.000000
    8       -4.387493   1.000000
    9       -3.444457   1.000000
   10       -3.444452   1.000000
   11       -3.241953   1.000000
   12       -3.241941   1.000000
   13       -2.967857   1.000000
   14        0.278326   1.000000
   15        0.279208   1.000000
   16        0.968545   1.000000
   17        1.057650   1.000000
   18        1.058544   1.000000
   19        1.825269   0.000000
   20        6.238441   0.000000
   21        9.207820   0.000000
   22       13.889731   0.000000
   23       13.889745   0.000000
   24       14.930670   0.000000
   25       15.128643   0.000000
   26       15.128891   0.000000
   27       17.571512   0.000000
   28       19.208809   0.000000
   29       19.208819   0.000000
   30       20.881555   0.000000
   31       20.906621   0.000000
   32       20.906714   0.000000
 
  0.1111111E+00  0.6938894E-17  0.0000000E+00  0.1481481E-01
    1      -16.834487   1.000000
    2      -16.177100   1.000000
    3       -4.646577   1.000000
    4       -4.537165   1.000000
    5       -4.492422   1.000000
    6       -4.407440   1.000000
    7       -4.345014   1.000000
    8       -4.333291   1.000000
    9       -3.471453   1.000000
   10       -3.447537   1.000000
   11       -3.236304   1.000000
   12       -3.186766   1.000000
   13       -2.982868   1.000000
   14       -0.158368   1.000000
   15        0.120988   1.000000
   16        0.356258   1.000000
   17        0.891248   1.000000
   18        0.967966   1.000000
   19        2.684924   0.000000
   20        6.736435   0.000000
   21        9.206476   0.000000
   22       12.721933   0.000000
   23       14.004484   0.000000
   24       14.252040   0.000000
   25       15.105536   0.000000
   26       15.264909   0.000000
   27       16.909813   0.000000
   28       18.532944   0.000000
   29       19.430869   0.000000
   30       21.132121   0.000000
   31       22.277373   0.000000
   32       22.337268   0.000000
 
  0.2222222E+00  0.1387779E-16  0.0000000E+00  0.1481481E-01
    1      -16.660846   1.000000
    2      -16.106572   1.000000
    3       -4.783999   1.000000
    4       -4.476580   1.000000
    5       -4.448672   1.000000
    6       -4.338969   1.000000
    7       -4.182912   1.000000
    8       -4.075792   1.000000
    9       -3.536043   1.000000
   10       -3.433683   1.000000
   11       -3.224606   1.000000
   12       -3.054003   1.000000
   13       -2.985606   1.000000
   14       -1.144539   1.000000
   15       -0.455732   1.000000
   16       -0.283526   1.000000
   17        0.644481   1.000000
   18        0.737506   1.000000
   19        3.951805   0.000000
   20        7.785195   0.000000
   21        9.184090   0.000000
   22       11.030980   0.000000
   23       12.867393   0.000000
   24       14.281561   0.000000
   25       14.482524   0.000000
   26       15.229689   0.000000
   27       16.305727   0.000000
   28       18.624990   0.000000
   29       19.299267   0.000000
   30       21.932006   0.000000
   31       23.882652   0.000000
   32       24.564059   0.000000
 
  0.3333333E+00  0.0000000E+00  0.0000000E+00  0.1481481E-01
    1      -16.439867   1.000000
    2      -16.042946   1.000000
    3       -4.855575   1.000000
    4       -4.514650   1.000000
    5       -4.368101   1.000000
    6       -4.166611   1.000000
    7       -3.980669   1.000000
    8       -3.850952   1.000000
    9       -3.525136   1.000000
   10       -3.370887   1.000000
   11       -3.211005   1.000000
   12       -3.050567   1.000000
   13       -2.778713   1.000000
   14       -2.069827   1.000000
   15       -1.198962   1.000000
   16       -0.761457   1.000000
   17        0.248646   1.000000
   18        0.459249   1.000000
   19        5.285772   0.000000
   20        8.526068   0.000000
   21        8.977291   0.000000
   22        9.825116   0.000000
   23       11.979255   0.000000
   24       13.476026   0.000000
   25       14.391624   0.000000
   26       15.062666   0.000000
   27       16.698259   0.000000
   28       19.227105   0.000000
   29       19.894626   0.000000
   30       20.758689   0.000000
   31       24.304474   0.000000
   32       25.518949   0.000000
 
  0.4444444E+00  0.2775558E-16  0.0000000E+00  0.1481481E-01
    1      -16.266320   1.000000
    2      -16.024581   1.000000
    3       -4.805595   1.000000
    4       -4.559616   1.000000
    5       -4.330869   1.000000
    6       -3.980043   1.000000
    7       -3.908349   1.000000
    8       -3.825875   1.000000
    9       -3.416242   1.000000
   10       -3.291092   1.000000
   11       -3.197780   1.000000
   12       -3.052237   1.000000
   13       -2.757039   1.000000
   14       -2.363216   1.000000
   15       -1.677408   1.000000
   16       -1.101698   1.000000
   17       -0.138383   1.000000
   18        0.264372   1.000000
   19        6.490170   0.000000
   20        8.164196   0.000000
   21        8.624962   0.000000
   22        9.505317   0.000000
   23       11.614777   0.000000
   24       13.390678   0.000000
   25       14.214161   0.000000
   26       15.177805   0.000000
   27       16.774022   0.000000
   28       19.400793   0.000000
   29       20.079515   0.000000
   30       21.283742   0.000000
   31       23.997844   0.000000
   32       25.493073   0.000000
 
  0.1111111E+00  0.1111111E+00  0.0000000E+00  0.1481481E-01
    1      -16.714550   1.000000
    2      -16.127063   1.000000
    3       -4.718095   1.000000
    4       -4.531714   1.000000
    5       -4.434911   1.000000
    6       -4.391431   1.000000
    7       -4.222857   1.000000
    8       -4.156272   1.000000
    9       -3.509744   1.000000
   10       -3.449136   1.000000
   11       -3.229298   1.000000
   12       -3.078073   1.000000
   13       -3.001604   1.000000
   14       -0.734972   1.000000
   15       -0.493605   1.000000
   16       -0.031394   1.000000
   17        0.734335   1.000000
   18        0.765104   1.000000
   19        3.618826   0.000000
   20        7.517853   0.000000
   21        9.211721   0.000000
   22       11.555442   0.000000
   23       13.071531   0.000000
   24       14.178162   0.000000
   25       14.411616   0.000000
   26       15.839577   0.000000
   27       16.880025   0.000000
   28       16.894631   0.000000
   29       21.383023   0.000000
   30       21.495982   0.000000
   31       22.985591   0.000000
   32       23.034919   0.000000
 
  0.2222222E+00  0.1111111E+00  0.0000000E+00  0.2962963E-01
    1      -16.516485   1.000000
    2      -16.061611   1.000000
    3       -4.784619   1.000000
    4       -4.525112   1.000000
    5       -4.389697   1.000000
    6       -4.265455   1.000000
    7       -4.040198   1.000000
    8       -3.903154   1.000000
    9       -3.554139   1.000000
   10       -3.414564   1.000000
   11       -3.216934   1.000000
   12       -3.046696   1.000000
   13       -2.834925   1.000000
   14       -1.616060   1.000000
   15       -1.096363   1.000000
   16       -0.660221   1.000000
   17        0.415682   1.000000
   18        0.442515   1.000000
   19        4.893068   0.000000
   20        8.412976   0.000000
   21        9.273714   0.000000
   22       10.306554   0.000000
   23       12.167401   0.000000
   24       13.280108   0.000000
   25       13.876686   0.000000
   26       15.694854   0.000000
   27       16.639368   0.000000
   28       17.958416   0.000000
   29       21.048416   0.000000
   30       21.998784   0.000000
   31       23.554493   0.000000
   32       24.843780   0.000000
 
  0.3333333E+00  0.1111111E+00  0.0000000E+00  0.2962963E-01
    1      -16.313822   1.000000
    2      -16.024158   1.000000
    3       -4.769502   1.000000
    4       -4.490377   1.000000
    5       -4.353912   1.000000
    6       -4.093952   1.000000
    7       -3.875154   1.000000
    8       -3.817384   1.000000
    9       -3.474765   1.000000
   10       -3.367382   1.000000
   11       -3.196432   1.000000
   12       -2.964937   1.000000
   13       -2.799880   1.000000
   14       -2.190561   1.000000
   15       -1.531690   1.000000
   16       -1.250187   1.000000
   17       -0.028458   1.000000
   18        0.162880   1.000000
   19        6.219048   0.000000
   20        8.654292   0.000000
   21        8.959036   0.000000
   22        9.589921   0.000000
   23       11.786890   0.000000
   24       13.004724   0.000000
   25       13.512346   0.000000
   26       15.162437   0.000000
   27       16.859542   0.000000
   28       19.269983   0.000000
   29       21.013001   0.000000
   30       21.388409   0.000000
   31       23.961527   0.000000
   32       25.655206   0.000000
 
  0.4444444E+00  0.1111111E+00  0.0000000E+00  0.1481481E-01
    1      -16.214356   1.000000
    2      -16.027805   1.000000
    3       -4.731466   1.000000
    4       -4.446332   1.000000
    5       -4.343232   1.000000
    6       -4.000853   1.000000
    7       -3.896621   1.000000
    8       -3.766765   1.000000
    9       -3.420098   1.000000
   10       -3.321977   1.000000
   11       -3.173957   1.000000
   12       -3.131511   1.000000
   13       -2.629921   1.000000
   14       -2.387175   1.000000
   15       -1.818267   1.000000
   16       -1.288170   1.000000
   17       -0.318184   1.000000
   18        0.050593   1.000000
   19        7.105252   0.000000
   20        8.212346   0.000000
   21        8.643547   0.000000
   22        9.507186   0.000000
   23       11.580281   0.000000
   24       13.316822   0.000000
   25       13.567342   0.000000
   26       14.727361   0.000000
   27       16.837374   0.000000
   28       19.984386   0.000000
   29       20.862583   0.000000
   30       21.402899   0.000000
   31       23.762497   0.000000
   32       25.859153   0.000000
 
  0.2222222E+00  0.2222222E+00  0.0000000E+00  0.1481481E-01
    1      -16.333164   1.000000
    2      -16.024477   1.000000
    3       -4.625825   1.000000
    4       -4.595047   1.000000
    5       -4.277601   1.000000
    6       -4.183252   1.000000
    7       -3.871797   1.000000
    8       -3.768785   1.000000
    9       -3.564090   1.000000
   10       -3.405030   1.000000
   11       -3.194982   1.000000
   12       -2.953000   1.000000
   13       -2.766657   1.000000
   14       -1.832637   1.000000
   15       -1.721997   1.000000
   16       -1.375494   1.000000
   17       -0.017541   1.000000
   18        0.062374   1.000000
   19        6.191168   0.000000
   20        8.676121   0.000000
   21        9.634464   0.000000
   22        9.748425   0.000000
   23       11.894584   0.000000
   24       12.555641   0.000000
   25       12.685940   0.000000
   26       15.762841   0.000000
   27       16.356881   0.000000
   28       18.800287   0.000000
   29       22.542619   0.000000
   30       23.133682   0.000000
   31       23.307010   0.000000
   32       24.350432   0.000000
 
  0.3333333E+00  0.2222222E+00  0.0000000E+00  0.2962963E-01
    1      -16.181444   1.000000
    2      -16.029836   1.000000
    3       -4.633958   1.000000
    4       -4.364110   1.000000
    5       -4.169668   1.000000
    6       -4.119151   1.000000
    7       -3.779304   1.000000
    8       -3.696121   1.000000
    9       -3.460758   1.000000
   10       -3.432313   1.000000
   11       -3.178784   1.000000
   12       -3.109277   1.000000
   13       -2.689436   1.000000
   14       -2.294357   1.000000
   15       -2.104455   1.000000
   16       -1.323946   1.000000
   17       -0.461875   1.000000
   18       -0.275841   1.000000
   19        7.508163   0.000000
   20        8.684832   0.000000
   21        9.022543   0.000000
   22        9.498820   0.000000
   23       11.722239   0.000000
   24       12.296229   0.000000
   25       13.215246   0.000000
   26       14.729758   0.000000
   27       16.051458   0.000000
   28       20.410396   0.000000
   29       22.069735   0.000000
   30       23.244354   0.000000
   31       23.635794   0.000000
   32       24.250744   0.000000
 
  0.3333333E+00  0.3333333E+00  0.0000000E+00  0.4938272E-02
    1      -16.081410   1.000000
    2      -16.081399   1.000000
    3       -4.613949   1.000000
    4       -4.220546   1.000000
    5       -4.220539   1.000000
    6       -3.863061   1.000000
    7       -3.604810   1.000000
    8       -3.604798   1.000000
    9       -3.510166   1.000000
   10       -3.382283   1.000000
   11       -3.339910   1.000000
   12       -3.339893   1.000000
   13       -2.635547   1.000000
   14       -2.444789   1.000000
   15       -2.444771   1.000000
   16       -0.828970   1.000000
   17       -0.828949   1.000000
   18       -0.641372   1.000000
   19        8.681526   0.000000
   20        8.681584   0.000000
   21        8.717015   0.000000
   22        9.178780   0.000000
   23       11.747977   0.000000
   24       11.747988   0.000000
   25       14.133012   0.000000
   26       14.666601   0.000000
   27       14.666616   0.000000
   28       22.161494   0.000000
   29       22.233041   0.000000
   30       22.233083   0.000000
   31       23.427651   0.000000
   32       25.783520   0.000000
 
  0.0000000E+00  0.0000000E+00  0.2000000E+00  0.4938272E-02
    1      -16.835631   1.000000
    2      -16.277048   1.000000
    3       -4.616761   1.000000
    4       -4.597933   1.000000
    5       -4.565095   1.000000
    6       -4.564938   1.000000
    7       -4.414835   1.000000
    8       -4.414670   1.000000
    9       -3.418190   1.000000
   10       -3.418185   1.000000
   11       -3.253554   1.000000
   12       -3.253544   1.000000
   13       -2.540237   1.000000
   14        0.254423   1.000000
   15        0.353131   1.000000
   16        0.354038   1.000000
   17        0.983327   1.000000
   18        0.984259   1.000000
   19        2.664604   0.000000
   20        5.901331   0.000000
   21        9.512519   0.000000
   22       13.727450   0.000000
   23       13.901740   0.000000
   24       13.901751   0.000000
   25       14.867629   0.000000
   26       14.867831   0.000000
   27       18.014010   0.000000
   28       19.622674   0.000000
   29       19.622729   0.000000
   30       20.592352   0.000000
   31       21.333545   0.000000
   32       21.333784   0.000000
 
  0.1111111E+00  0.6938894E-17  0.2000000E+00  0.2962963E-01
    1      -16.773793   1.000000
    2      -16.242435   1.000000
    3       -4.687480   1.000000
    4       -4.598583   1.000000
    5       -4.525338   1.000000
    6       -4.497255   1.000000
    7       -4.376901   1.000000
    8       -4.361831   1.000000
    9       -3.438581   1.000000
   10       -3.421474   1.000000
   11       -3.249954   1.000000
   12       -3.230093   1.000000
   13       -2.512014   1.000000
   14       -0.119923   1.000000
   15        0.038853   1.000000
   16        0.203108   1.000000
   17        0.789598   1.000000
   18        0.890326   1.000000
   19        3.195948   0.000000
   20        6.347696   0.000000
   21        9.523743   0.000000
   22       12.772526   0.000000
   23       13.724636   0.000000
   24       14.016460   0.000000
   25       14.157800   0.000000
   26       14.975740   0.000000
   27       17.762985   0.000000
   28       19.122240   0.000000
   29       19.722902   0.000000
   30       21.018459   0.000000
   31       22.173146   0.000000
   32       22.505682   0.000000
 
  0.2222222E+00  0.1387779E-16  0.2000000E+00  0.2962963E-01
    1      -16.608484   1.000000
    2      -16.160851   1.000000
    3       -4.824499   1.000000
    4       -4.607073   1.000000
    5       -4.430415   1.000000
    6       -4.370939   1.000000
    7       -4.218427   1.000000
    8       -4.217241   1.000000
    9       -3.480609   1.000000
   10       -3.411103   1.000000
   11       -3.242064   1.000000
   12       -3.175648   1.000000
   13       -2.428893   1.000000
   14       -1.049936   1.000000
   15       -0.598004   1.000000
   16       -0.181402   1.000000
   17        0.553179   1.000000
   18        0.645371   1.000000
   19        4.241855   0.000000
   20        7.242206   0.000000
   21        9.524656   0.000000
   22       11.117028   0.000000
   23       12.713986   0.000000
   24       13.910569   0.000000
   25       14.287515   0.000000
   26       15.015674   0.000000
   27       16.432294   0.000000
   28       19.227068   0.000000
   29       19.576049   0.000000
   30       22.279143   0.000000
   31       23.211913   0.000000
   32       24.407460   0.000000
 
  0.3333333E+00  0.0000000E+00  0.2000000E+00  0.2962963E-01
    1      -16.400321   1.000000
    2      -16.079175   1.000000
    3       -4.898154   1.000000
    4       -4.644258   1.000000
    5       -4.339484   1.000000
    6       -4.199820   1.000000
    7       -4.027884   1.000000
    8       -4.020729   1.000000
    9       -3.470802   1.000000
   10       -3.357314   1.000000
   11       -3.229838   1.000000
   12       -3.117410   1.000000
   13       -2.447546   1.000000
   14       -1.875857   1.000000
   15       -1.220366   1.000000
   16       -0.634595   1.000000
   17        0.261743   1.000000
   18        0.349126   1.000000
   19        5.393366   0.000000
   20        7.824163   0.000000
   21        9.409085   0.000000
   22        9.900591   0.000000
   23       11.950161   0.000000
   24       13.573263   0.000000
   25       14.417628   0.000000
   26       14.964143   0.000000
   27       15.953739   0.000000
   28       19.407737   0.000000
   29       20.370452   0.000000
   30       21.664517   0.000000
   31       22.971617   0.000000
   32       25.817715   0.000000
 
  0.4444444E+00  0.2775558E-16  0.2000000E+00  0.2962963E-01
    1      -16.240738   1.000000
    2      -16.045296   1.000000
    3       -4.863897   1.000000
    4       -4.693325   1.000000
    5       -4.293428   1.000000
    6       -4.023949   1.000000
    7       -3.963857   1.000000
    8       -3.887438   1.000000
    9       -3.351432   1.000000
   10       -3.286238   1.000000
   11       -3.215742   1.000000
   12       -3.080605   1.000000
   13       -2.752791   1.000000
   14       -2.354987   1.000000
   15       -1.350934   1.000000
   16       -0.953502   1.000000
   17       -0.038295   1.000000
   18        0.145131   1.000000
   19        6.369290   0.000000
   20        7.752969   0.000000
   21        8.970521   0.000000
   22        9.558200   0.000000
   23       11.553023   0.000000
   24       13.579557   0.000000
   25       14.296704   0.000000
   26       15.075034   0.000000
   27       15.829919   0.000000
   28       19.493890   0.000000
   29       21.430067   0.000000
   30       21.694989   0.000000
   31       22.327064   0.000000
   32       25.702959   0.000000
 
  0.1111111E+00  0.1111111E+00  0.2000000E+00  0.2962963E-01
    1      -16.660230   1.000000
    2      -16.185420   1.000000
    3       -4.762777   1.000000
    4       -4.620028   1.000000
    5       -4.445796   1.000000
    6       -4.439854   1.000000
    7       -4.271885   1.000000
    8       -4.254376   1.000000
    9       -3.466454   1.000000
   10       -3.420220   1.000000
   11       -3.245794   1.000000
   12       -3.188952   1.000000
   13       -2.453498   1.000000
   14       -0.620238   1.000000
   15       -0.588201   1.000000
   16       -0.053125   1.000000
   17        0.632073   1.000000
   18        0.671826   1.000000
   19        3.961106   0.000000
   20        7.023307   0.000000
   21        9.540792   0.000000
   22       11.621259   0.000000
   23       13.114461   0.000000
   24       13.556041   0.000000
   25       14.056423   0.000000
   26       15.276507   0.000000
   27       17.420060   0.000000
   28       17.743394   0.000000
   29       20.936478   0.000000
   30       21.865269   0.000000
   31       23.496539   0.000000
   32       23.547005   0.000000
 
  0.2222222E+00  0.1111111E+00  0.2000000E+00  0.5925926E-01
    1      -16.472193   1.000000
    2      -16.103750   1.000000
    3       -4.830690   1.000000
    4       -4.624402   1.000000
    5       -4.386943   1.000000
    6       -4.295399   1.000000
    7       -4.101583   1.000000
    8       -4.078396   1.000000
    9       -3.491526   1.000000
   10       -3.380050   1.000000
   11       -3.234599   1.000000
   12       -3.128783   1.000000
   13       -2.381690   1.000000
   14       -1.474067   1.000000
   15       -1.107837   1.000000
   16       -0.609182   1.000000
   17        0.318155   1.000000
   18        0.402538   1.000000
   19        5.078886   0.000000
   20        7.798689   0.000000
   21        9.566178   0.000000
   22       10.398482   0.000000
   23       12.275410   0.000000
   24       13.077777   0.000000
   25       13.663920   0.000000
   26       15.611378   0.000000
   27       16.582679   0.000000
   28       18.380932   0.000000
   29       20.719935   0.000000
   30       22.833925   0.000000
   31       23.438415   0.000000
   32       23.838558   0.000000
 
  0.3333333E+00  0.1111111E+00  0.2000000E+00  0.5925926E-01
    1      -16.284032   1.000000
    2      -16.049263   1.000000
    3       -4.821085   1.000000
    4       -4.614096   1.000000
    5       -4.331828   1.000000
    6       -4.127520   1.000000
    7       -3.964902   1.000000
    8       -3.921529   1.000000
    9       -3.442578   1.000000
   10       -3.316211   1.000000
   11       -3.209243   1.000000
   12       -3.043454   1.000000
   13       -2.643728   1.000000
   14       -2.072943   1.000000
   15       -1.377829   1.000000
   16       -1.080502   1.000000
   17       -0.026701   1.000000
   18        0.105904   1.000000
   19        6.235908   0.000000
   20        8.090939   0.000000
   21        9.310723   0.000000
   22        9.649920   0.000000
   23       11.621599   0.000000
   24       13.027189   0.000000
   25       13.536914   0.000000
   26       15.298343   0.000000
   27       16.597232   0.000000
   28       19.187516   0.000000
   29       20.797681   0.000000
   30       22.571024   0.000000
   31       22.880624   0.000000
   32       24.983741   0.000000
 
  0.4444444E+00  0.1111111E+00  0.2000000E+00  0.2962963E-01
    1      -16.193743   1.000000
    2      -16.041899   1.000000
    3       -4.785273   1.000000
    4       -4.605188   1.000000
    5       -4.319123   1.000000
    6       -4.022137   1.000000
    7       -3.935033   1.000000
    8       -3.851016   1.000000
    9       -3.347618   1.000000
   10       -3.309623   1.000000
   11       -3.167837   1.000000
   12       -3.117874   1.000000
   13       -2.687853   1.000000
   14       -2.463358   1.000000
   15       -1.506359   1.000000
   16       -1.049202   1.000000
   17       -0.242300   1.000000
   18       -0.033730   1.000000
   19        6.916944   0.000000
   20        7.988750   0.000000
   21        8.902950   0.000000
   22        9.577040   0.000000
   23       11.335895   0.000000
   24       12.971920   0.000000
   25       13.957054   0.000000
   26       14.922134   0.000000
   27       16.586046   0.000000
   28       19.687343   0.000000
   29       20.817637   0.000000
   30       22.557380   0.000000
   31       22.596975   0.000000
   32       25.338272   0.000000
 
  0.2222222E+00  0.2222222E+00  0.2000000E+00  0.2962963E-01
    1      -16.301291   1.000000
    2      -16.051487   1.000000
    3       -4.702971   1.000000
    4       -4.633132   1.000000
    5       -4.283130   1.000000
    6       -4.242372   1.000000
    7       -3.992227   1.000000
    8       -3.931995   1.000000
    9       -3.491397   1.000000
   10       -3.326277   1.000000
   11       -3.205170   1.000000
   12       -3.029228   1.000000
   13       -2.529911   1.000000
   14       -1.833321   1.000000
   15       -1.381795   1.000000
   16       -1.337544   1.000000
   17       -0.158009   1.000000
   18        0.127990   1.000000
   19        6.279415   0.000000
   20        8.287551   0.000000
   21        9.679336   0.000000
   22        9.817224   0.000000
   23       11.785687   0.000000
   24       12.131743   0.000000
   25       13.039827   0.000000
   26       16.261653   0.000000
   27       16.393168   0.000000
   28       18.481825   0.000000
   29       21.776426   0.000000
   30       22.608651   0.000000
   31       23.792560   0.000000
   32       24.237674   0.000000
 
  0.3333333E+00  0.2222222E+00  0.2000000E+00  0.5925926E-01
    1      -16.163809   1.000000
    2      -16.041006   1.000000
    3       -4.647413   1.000000
    4       -4.467114   1.000000
    5       -4.309888   1.000000
    6       -4.108526   1.000000
    7       -3.858404   1.000000
    8       -3.827734   1.000000
    9       -3.443008   1.000000
   10       -3.341079   1.000000
   11       -3.161635   1.000000
   12       -3.022044   1.000000
   13       -2.713241   1.000000
   14       -2.288274   1.000000
   15       -1.970044   1.000000
   16       -1.029261   1.000000
   17       -0.538621   1.000000
   18       -0.197518   1.000000
   19        7.483474   0.000000
   20        8.515172   0.000000
   21        9.165140   0.000000
   22        9.599215   0.000000
   23       11.035163   0.000000
   24       11.766617   0.000000
   25       13.843381   0.000000
   26       15.294345   0.000000
   27       16.527353   0.000000
   28       19.541416   0.000000
   29       21.181568   0.000000
   30       22.721794   0.000000
   31       24.000551   0.000000
   32       24.276516   0.000000
 
  0.3333333E+00  0.3333333E+00  0.2000000E+00  0.9876543E-02
    1      -16.077379   1.000000
    2      -16.077368   1.000000
    3       -4.573231   1.000000
    4       -4.346507   1.000000
    5       -4.346499   1.000000
    6       -4.008805   1.000000
    7       -3.741604   1.000000
    8       -3.741596   1.000000
    9       -3.487516   1.000000
   10       -3.392205   1.000000
   11       -3.144960   1.000000
   12       -3.144940   1.000000
   13       -2.505579   1.000000
   14       -2.505558   1.000000
   15       -2.399923   1.000000
   16       -0.826582   1.000000
   17       -0.591039   1.000000
   18       -0.591014   1.000000
   19        8.734286   0.000000
   20        8.734332   0.000000
   21        8.802290   0.000000
   22        9.161866   0.000000
   23       10.997997   0.000000
   24       10.998006   0.000000
   25       14.544608   0.000000
   26       15.502394   0.000000
   27       15.502420   0.000000
   28       20.216987   0.000000
   29       21.598402   0.000000
   30       21.598426   0.000000
   31       24.144315   0.000000
   32       25.413732   0.000000
 
  0.0000000E+00  0.0000000E+00  0.4000000E+00  0.4938272E-02
    1      -16.668146   1.000000
    2      -16.455322   1.000000
    3       -4.763272   1.000000
    4       -4.725398   1.000000
    5       -4.531584   1.000000
    6       -4.531429   1.000000
    7       -4.474768   1.000000
    8       -4.474602   1.000000
    9       -3.356240   1.000000
   10       -3.356234   1.000000
   11       -3.292688   1.000000
   12       -3.292680   1.000000
   13       -1.666306   1.000000
   14       -0.702295   1.000000
   15        0.549563   1.000000
   16        0.550493   1.000000
   17        0.791444   1.000000
   18        0.792349   1.000000
   19        3.877124   0.000000
   20        5.032588   0.000000
   21       10.402342   0.000000
   22       11.864394   0.000000
   23       14.030380   0.000000
   24       14.030419   0.000000
   25       14.381740   0.000000
   26       14.381848   0.000000
   27       18.764613   0.000000
   28       19.722308   0.000000
   29       20.649609   0.000000
   30       20.649832   0.000000
   31       21.593665   0.000000
   32       21.594113   0.000000
 
  0.1111111E+00  0.6938894E-17  0.4000000E+00  0.2962963E-01
    1      -16.613602   1.000000
    2      -16.411089   1.000000
    3       -4.788290   1.000000
    4       -4.775023   1.000000
    5       -4.487860   1.000000
    6       -4.487739   1.000000
    7       -4.437275   1.000000
    8       -4.425954   1.000000
    9       -3.363042   1.000000
   10       -3.359040   1.000000
   11       -3.293181   1.000000
   12       -3.285463   1.000000
   13       -1.643566   1.000000
   14       -0.769601   1.000000
   15        0.193410   1.000000
   16        0.418292   1.000000
   17        0.514393   1.000000
   18        0.680740   1.000000
   19        4.261601   0.000000
   20        5.412061   0.000000
   21       10.395610   0.000000
   22       11.777610   0.000000
   23       13.239308   0.000000
   24       13.666010   0.000000
   25       14.140226   0.000000
   26       14.480850   0.000000
   27       18.782763   0.000000
   28       19.653816   0.000000
   29       20.482586   0.000000
   30       21.248217   0.000000
   31       21.970918   0.000000
   32       22.173402   0.000000
 
  0.2222222E+00  0.1387779E-16  0.4000000E+00  0.2962963E-01
    1      -16.471692   1.000000
    2      -16.300488   1.000000
    3       -4.887671   1.000000
    4       -4.830839   1.000000
    5       -4.377469   1.000000
    6       -4.375910   1.000000
    7       -4.323416   1.000000
    8       -4.296879   1.000000
    9       -3.371583   1.000000
   10       -3.354975   1.000000
   11       -3.290461   1.000000
   12       -3.262107   1.000000
   13       -1.681609   1.000000
   14       -1.157060   1.000000
   15       -0.454447   1.000000
   16        0.079898   1.000000
   17        0.137685   1.000000
   18        0.394606   1.000000
   19        5.062805   0.000000