Automatically generated mesh
      36
Reciprocal lattice
    0.00000000000000    0.00000000000000    0.00000000000000             1
    0.11111111111111    0.00000000000000    0.00000000000000             6
    0.22222222222222    0.00000000000000    0.00000000000000             6
    0.33333333333333    0.00000000000000    0.00000000000000             6
    0.44444444444444    0.00000000000000    0.00000000000000             6
    0.11111111111111    0.11111111111111    0.00000000000000             6
    0.22222222222222    0.11111111111111    0.00000000000000            12
    0.33333333333333    0.11111111111111    0.00000000000000            12
    0.44444444444444    0.11111111111111    0.00000000000000             6
    0.22222222222222    0.22222222222222    0.00000000000000             6
    0.33333333333333    0.22222222222222    0.00000000000000            12
    0.33333333333333    0.33333333333333    0.00000000000000             2
    0.00000000000000    0.00000000000000    0.20000000000000             2
    0.11111111111111    0.00000000000000    0.20000000000000            12
    0.22222222222222    0.00000000000000    0.20000000000000            12
    0.33333333333333    0.00000000000000    0.20000000000000            12
    0.44444444444444    0.00000000000000    0.20000000000000            12
    0.11111111111111    0.11111111111111    0.20000000000000            12
    0.22222222222222    0.11111111111111    0.20000000000000            24
    0.33333333333333    0.11111111111111    0.20000000000000            24
    0.44444444444444    0.11111111111111    0.20000000000000            12
    0.22222222222222    0.22222222222222    0.20000000000000            12
    0.33333333333333    0.22222222222222    0.20000000000000            24
    0.33333333333333    0.33333333333333    0.20000000000000             4
    0.00000000000000    0.00000000000000    0.40000000000000             2
    0.11111111111111    0.00000000000000    0.40000000000000            12
    0.22222222222222    0.00000000000000    0.40000000000000            12
    0.33333333333333    0.00000000000000    0.40000000000000            12
    0.44444444444444    0.00000000000000    0.40000000000000            12
    0.11111111111111    0.11111111111111    0.40000000000000            12
    0.22222222222222    0.11111111111111    0.40000000000000            24
    0.33333333333333    0.11111111111111    0.40000000000000            24
    0.44444444444444    0.11111111111111    0.40000000000000            12
    0.22222222222222    0.22222222222222    0.40000000000000            12
    0.33333333333333    0.22222222222222    0.40000000000000            24
    0.33333333333333    0.33333333333333    0.40000000000000             4
