       N       E                     dE             d eps       ncg     rms          rms(c)
DAV:   1     0.172023998982E+03    0.17202E+03   -0.15687E+04  2304   0.136E+03
DAV:   2    -0.121982143895E+02   -0.18422E+03   -0.17074E+03  2656   0.265E+02
DAV:   3    -0.213850522620E+02   -0.91868E+01   -0.91590E+01  2640   0.635E+01
DAV:   4    -0.214260510887E+02   -0.40999E-01   -0.40998E-01  2928   0.450E+00
DAV:   5    -0.214261999139E+02   -0.14883E-03   -0.14882E-03  2736   0.242E-01    0.102E+01
DAV:   6    -0.182399800985E+02    0.31862E+01   -0.58842E+00  3616   0.499E+01    0.329E+00
DAV:   7    -0.182740613149E+02   -0.34081E-01   -0.14498E+00  2496   0.118E+01    0.223E+00
DAV:   8    -0.182520132250E+02    0.22048E-01   -0.23214E-01  2640   0.304E+00    0.747E-01
DAV:   9    -0.182387383363E+02    0.13275E-01   -0.22587E-02  3392   0.208E+00    0.198E-01
DAV:  10    -0.182394407386E+02   -0.70240E-03   -0.10227E-02  2448   0.558E-01    0.181E-01
DAV:  11    -0.182392828744E+02    0.15786E-03   -0.80300E-04  2688   0.195E-01    0.200E-02
DAV:  12    -0.182392864897E+02   -0.36153E-05   -0.30451E-05  2784   0.345E-02    0.147E-02
DAV:  13    -0.182392854586E+02    0.10312E-05   -0.54012E-06  2784   0.163E-02    0.431E-03
DAV:  14    -0.182392854354E+02    0.23172E-07   -0.47757E-07  2032   0.506E-03
   1 F= -.18239285E+02 E0= -.18239285E+02  d E =-.182393E+02
       N       E                     dE             d eps       ncg     rms          rms(c)
DAV:   1    -0.192129959505E+02   -0.97371E+00   -0.97865E+00  2880   0.493E+01    0.714E+00
DAV:   2    -0.183371779707E+02    0.87582E+00   -0.22756E+00  2800   0.282E+01    0.183E+00
DAV:   3    -0.182722951917E+02    0.64883E-01   -0.44875E-02  2672   0.226E+00    0.967E-01
DAV:   4    -0.182453559665E+02    0.26939E-01   -0.13600E-02  4112   0.232E+00    0.996E-02
DAV:   5    -0.182455460161E+02   -0.19005E-03   -0.40554E-03  2384   0.479E-01    0.535E-02
DAV:   6    -0.182455417942E+02    0.42219E-05   -0.15338E-04  2976   0.123E-01    0.234E-02
DAV:   7    -0.182455530140E+02   -0.11220E-04   -0.23989E-05  3040   0.389E-02    0.508E-03
DAV:   8    -0.182455521901E+02    0.82387E-06   -0.13959E-06  2400   0.270E-02
   2 F= -.18245552E+02 E0= -.18245552E+02  d E =-.626675E-02
       N       E                     dE             d eps       ncg     rms          rms(c)
DAV:   1    -0.184398180084E+02   -0.19426E+00   -0.19594E+00  2864   0.229E+01    0.303E+00
DAV:   2    -0.182769927630E+02    0.16283E+00   -0.37811E-01  2848   0.108E+01    0.883E-01
DAV:   3    -0.182624298568E+02    0.14563E-01   -0.78897E-03  2720   0.251E+00    0.398E-01
DAV:   4    -0.182575922222E+02    0.48376E-02   -0.42501E-03  3440   0.555E-01    0.927E-02
DAV:   5    -0.182573599384E+02    0.23228E-03   -0.32963E-04  3552   0.242E-01    0.109E-02
DAV:   6    -0.182573707080E+02   -0.10770E-04   -0.55967E-05  2416   0.473E-02    0.595E-03
DAV:   7    -0.182573736931E+02   -0.29851E-05   -0.22702E-06  2608   0.142E-02    0.396E-03
DAV:   8    -0.182573735905E+02    0.10256E-06   -0.56246E-07  1232   0.483E-03
   3 F= -.18257374E+02 E0= -.18257374E+02  d E =-.180882E-01
