 vasp.5.4.4.18Apr17-6-g9f103f2a35 (build Apr 07 2018 02:38:49) complex          
  
 executed on             LinuxIFC date 2018.11.18  15:34:52
 running on   16 total cores
 distrk:  each k-point on   16 cores,    1 groups
 distr:  one band on NCORES_PER_BAND=   1 cores,   16 groups


--------------------------------------------------------------------------------------------------------


 INCAR:
 POTCAR:   PAW_PBE O 08Apr2002                    
 POTCAR:   PAW_PBE Zn 06Sep2000                   

 ----------------------------------------------------------------------------- 
|                                                                             |
|           W    W    AA    RRRRR   N    N  II  N    N   GGGG   !!!           |
|           W    W   A  A   R    R  NN   N  II  NN   N  G    G  !!!           |
|           W    W  A    A  R    R  N N  N  II  N N  N  G       !!!           |
|           W WW W  AAAAAA  RRRRR   N  N N  II  N  N N  G  GGG   !            |
|           WW  WW  A    A  R   R   N   NN  II  N   NN  G    G                |
|           W    W  A    A  R    R  N    N  II  N    N   GGGG   !!!           |
|                                                                             |
|      For optimal performance we recommend to set                            |
|        NCORE= 4 - approx SQRT( number of cores)                             |
|      NCORE specifies how many cores store one orbital (NPAR=cpu/NCORE).     |
|      This setting can  greatly improve the performance of VASP for DFT.     |
|      The default,   NCORE=1            might be grossly inefficient         |
|      on modern multi-core architectures or massively parallel machines.     |
|      Do your own testing !!!!                                               |
|      Unfortunately you need to use the default for GW and RPA calculations. |
|      (for HF NCORE is supported but not extensively tested yet)             |
|                                                                             |
 ----------------------------------------------------------------------------- 

 POTCAR:   PAW_PBE O 08Apr2002                    
   VRHFIN =O: s2p4                                                              
   LEXCH  = PE                                                                  
   EATOM  =   432.3788 eV,   31.7789 Ry                                         
                                                                                
   TITEL  = PAW_PBE O 08Apr2002                                                 
   LULTRA =        F    use ultrasoft PP ?                                      
   IUNSCR =        0    unscreen: 0-lin 1-nonlin 2-no                           
   RPACOR =     .000    partial core radius                                     
   POMASS =   16.000; ZVAL   =    6.000    mass and valenz                      
   RCORE  =    1.520    outmost cutoff radius                                   
   RWIGS  =    1.550; RWIGS  =     .820    wigner-seitz radius (au A)           
   ENMAX  =  400.000; ENMIN  =  300.000 eV                                      
   ICORE  =        2    local potential                                         
   LCOR   =        T    correct aug charges                                     
   LPAW   =        T    paw PP                                                  
   EAUG   =  605.392                                                            
   DEXC   =     .000                                                            
   RMAX   =    2.264    core radius for proj-oper                               
   RAUG   =    1.300    factor for augmentation sphere                          
   RDEP   =    1.550    radius for radial grids                                 
   QCUT   =   -5.520; QGAM   =   11.041    optimization parameters              
                                                                                
   Description                                                                  
     l     E      TYP  RCUT    TYP  RCUT                                        
     0   .000     23  1.200                                                     
     0  -.700     23  1.200                                                     
     1   .000     23  1.520                                                     
     1   .600     23  1.520                                                     
     2   .000      7  1.500                                                     
  local pseudopotential read in
  atomic valenz-charges read in
  non local Contribution for L=           0  read in
    real space projection operators read in
  non local Contribution for L=           0  read in
    real space projection operators read in
  non local Contribution for L=           1  read in
    real space projection operators read in
  non local Contribution for L=           1  read in
    real space projection operators read in
    PAW grid and wavefunctions read in
 
   number of l-projection  operators is LMAX  =           4
   number of lm-projection operators is LMMAX =           8
 
 POTCAR:   PAW_PBE Zn 06Sep2000                   
   VRHFIN =Zn: d10 p2                                                           
   LEXCH  = PE                                                                  
   EATOM  =  1749.0928 eV,  128.5547 Ry                                         
                                                                                
   TITEL  = PAW_PBE Zn 06Sep2000                                                
   LULTRA =        F    use ultrasoft PP ?                                      
   IUNSCR =        1    unscreen: 0-lin 1-nonlin 2-no                           
   RPACOR =    2.000    partial core radius                                     
   POMASS =   65.390; ZVAL   =   12.000    mass and valenz                      
   RCORE  =    2.300    outmost cutoff radius                                   
   RWIGS  =    2.400; RWIGS  =    1.270    wigner-seitz radius (au A)           
   ENMAX  =  276.727; ENMIN  =  207.545 eV                                      
   RCLOC  =    1.828    cutoff for local pot                                    
   LCOR   =        T    correct aug charges                                     
   LPAW   =        T    paw PP                                                  
   EAUG   =  575.892                                                            
   DEXC   =    -.003                                                            
   RMAX   =    2.772    core radius for proj-oper                               
   RAUG   =    1.300    factor for augmentation sphere                          
   RDEP   =    2.324    radius for radial grids                                 
   QCUT   =   -4.510; QGAM   =    9.020    optimization parameters              
                                                                                
   Description                                                                  
     l     E      TYP  RCUT    TYP  RCUT                                        
     2   .000     23  2.300                                                     
     2   .000     23  2.300                                                     
     0   .000     23  2.300                                                     
     0   .000     23  2.300                                                     
     1  -.200     23  2.300                                                     
     1   .000     23  2.300                                                     
     3   .000      7   .000                                                     
  local pseudopotential read in
  partial core-charges read in
  atomic valenz-charges read in
  non local Contribution for L=           2  read in
    real space projection operators read in
  non local Contribution for L=           2  read in
    real space projection operators read in
  non local Contribution for L=           0  read in
    real space projection operators read in
  non local Contribution for L=           0  read in
    real space projection operators read in
  non local Contribution for L=           1  read in
    real space projection operators read in
  non local Contribution for L=           1  read in
    real space projection operators read in
    PAW grid and wavefunctions read in
 
   number of l-projection  operators is LMAX  =           6
   number of lm-projection operators is LMMAX =          18
 

 ----------------------------------------------------------------------------- 
|                                                                             |
|  ADVICE TO THIS USER RUNNING 'VASP/VAMP'   (HEAR YOUR MASTER'S VOICE ...):  |
|                                                                             |
|      You have a (more or less) 'small supercell' and for smaller cells      |
|      it is recommended  to use the reciprocal-space projection scheme!      |
|      The real space optimization is not  efficient for small cells and it   |
|      is also less accurate ...                                              |
|      Therefore set LREAL=.FALSE. in the  INCAR file                         |
|                                                                             |
 ----------------------------------------------------------------------------- 

 Optimization of the real space projectors (new method)

 maximal supplied QI-value         = 24.76
 optimisation between [QCUT,QGAM] = [ 10.15, 20.30] = [ 28.85,115.39] Ry 
 Optimized for a Real-space Cutoff    1.30 Angstroem

   l    n(q)    QCUT    max X(q) W(low)/X(q) W(high)/X(q)  e(spline) 
   0      8    10.150     4.192    0.55E-04    0.58E-04    0.78E-07
   0      8    10.150     8.473    0.46E-03    0.68E-03    0.23E-06
   1      7    10.150     2.474    0.11E-03    0.93E-04    0.33E-07
   1      7    10.150     3.912    0.46E-03    0.50E-03    0.15E-06
 Optimization of the real space projectors (new method)

 maximal supplied QI-value         = 16.25
 optimisation between [QCUT,QGAM] = [ 10.24, 20.48] = [ 29.35,117.42] Ry 
 Optimized for a Real-space Cutoff    1.38 Angstroem

   l    n(q)    QCUT    max X(q) W(low)/X(q) W(high)/X(q)  e(spline) 
   2      7    10.239     5.523    0.18E-04    0.65E-04    0.36E-07
   2      7    10.239     9.671    0.21E-03    0.50E-03    0.10E-06
   0      8    10.239    11.246    0.24E-04    0.13E-04    0.76E-08
   0      8    10.239    34.692    0.35E-03    0.73E-04    0.10E-06
   1      8    10.239     4.877    0.14E-03    0.16E-03    0.19E-07
   1      8    10.239     6.599    0.42E-03    0.61E-03    0.13E-06
 PAW_PBE O 08Apr2002                    :
 energy of atom  1       EATOM= -432.3788
 kinetic energy error for atom=    0.1156 (will be added to EATOM!!)
 PAW_PBE Zn 06Sep2000                   :
 energy of atom  2       EATOM=-1749.0928
 kinetic energy error for atom=    0.0107 (will be added to EATOM!!)
 
 
 POSCAR: Zn2 O2                                  
  positions in direct lattice
  No initial velocities read in
 exchange correlation table for  LEXCH =        8
   RHO(1)=    0.500       N(1)  =     2000
   RHO(2)=  100.500       N(2)  =     4000

 VTST: version 3.1, (03/28/14)

 CHAIN: initializing optimizer
 
 OPT: Using VASP Conjugate-Gradient optimizer
 CHAIN: Read ICHAIN            0
 
 POSCAR: Zn2 O2                                  
  positions in direct lattice
  No initial velocities read in
 


--------------------------------------------------------------------------------------------------------


 ion  position               nearest neighbor table
   1  0.667  0.333  0.880-   4 2.00   4 2.00   4 2.00   3 2.01
   2  0.333  0.667  0.380-   3 2.00   3 2.00   3 2.00   4 2.01
   3  0.667  0.333  0.501-   2 2.00   2 2.00   2 2.00   1 2.01
   4  0.333  0.667  0.001-   1 2.00   1 2.00   1 2.00   2 2.01
 
  LATTYP: Found a hexagonal cell.
 ALAT       =     3.2890021191
 C/A-ratio  =     1.6135593131
  
  Lattice vectors:
  
 A1 = (   3.2890000000,   0.0000000000,   0.0000000000)
 A2 = (  -1.6445000000,   2.8483600000,   0.0000000000)
 A3 = (   0.0000000000,   0.0000000000,   5.3070000000)


Analysis of symmetry for initial positions (statically):
=====================================================================
 Subroutine PRICEL returns:
 Original cell was already a primitive cell.
 

 Routine SETGRP: Setting up the symmetry group for a 
 hexagonal supercell.


 Subroutine GETGRP returns: Found 12 space group operations
 (whereof  6 operations were pure point group operations)
 out of a pool of 24 trial point group operations.


The static configuration has the point symmetry C_3v.
 The point group associated with its full space group is C_6v.


Analysis of symmetry for dynamics (positions and initial velocities):
=====================================================================
 Subroutine PRICEL returns:
 Original cell was already a primitive cell.
 

 Routine SETGRP: Setting up the symmetry group for a 
 hexagonal supercell.


 Subroutine GETGRP returns: Found 12 space group operations
 (whereof  6 operations were pure point group operations)
 out of a pool of 24 trial point group operations.


The dynamic configuration has the point symmetry C_3v.
 The point group associated with its full space group is C_6v.


 Subroutine INISYM returns: Found 12 space group operations
 (whereof  6 operations are pure point group operations),
 and found     1 'primitive' translations

 
 
 KPOINTS: K-Mesh Generated with KP-Resolved Value 

Automatic generation of k-mesh.
Space group operators:
 irot       det(A)        alpha          n_x          n_y          n_z        tau_x        tau_y        tau_z
    1     1.000000     0.000000     1.000000     0.000000     0.000000     0.000000     0.000000     0.000000
    2     1.000000   120.000000     0.000000     0.000000    -1.000000     0.000000     0.000000     0.000000
    3     1.000000   120.000000     0.000000     0.000000     1.000000     0.000000     0.000000     0.000000
    4    -1.000000   180.000000     1.000000     0.000000     0.000000     0.000000     0.000000     0.000000
    5    -1.000000   180.000000     0.500000    -0.866025     0.000000     0.000000     0.000000     0.000000
    6    -1.000000   180.000000    -0.500000    -0.866025     0.000000     0.000000     0.000000     0.000000
    7     1.000000    60.000000     0.000000     0.000000    -1.000000     0.000001     0.000000     0.500000
    8     1.000000   179.999999     0.000000     0.000000     1.000000     0.000000     0.000000     0.500000
    9     1.000000    60.000000     0.000000     0.000000     1.000000     0.000000     0.000000     0.500000
   10    -1.000000   180.000000     0.866026    -0.500000     0.000000     0.000000     0.000000     0.500000
   11    -1.000000   180.000000     0.000000     1.000000     0.000000     0.000001     0.000000     0.500000
   12    -1.000000   180.000000     0.866026     0.500000     0.000000     0.000000     0.000000     0.500000
 
 Subroutine IBZKPT returns following result:
 ===========================================
 
 Found     36 irreducible k-points:
 
 Following reciprocal coordinates:
            Coordinates               Weight
  0.000000  0.000000  0.000000      1.000000
  0.111111  0.000000  0.000000      6.000000
  0.222222  0.000000  0.000000      6.000000
  0.333333  0.000000  0.000000      6.000000
  0.444444  0.000000  0.000000      6.000000
  0.111111  0.111111  0.000000      6.000000
  0.222222  0.111111  0.000000     12.000000
  0.333333  0.111111  0.000000     12.000000
  0.444444  0.111111  0.000000      6.000000
  0.222222  0.222222  0.000000      6.000000
  0.333333  0.222222  0.000000     12.000000
  0.333333  0.333333  0.000000      2.000000
  0.000000  0.000000  0.200000      2.000000
  0.111111  0.000000  0.200000     12.000000
  0.222222  0.000000  0.200000     12.000000
  0.333333  0.000000  0.200000     12.000000
  0.444444  0.000000  0.200000     12.000000
  0.111111  0.111111  0.200000     12.000000
  0.222222  0.111111  0.200000     24.000000
  0.333333  0.111111  0.200000     24.000000
  0.444444  0.111111  0.200000     12.000000
  0.222222  0.222222  0.200000     12.000000
  0.333333  0.222222  0.200000     24.000000
  0.333333  0.333333  0.200000      4.000000
  0.000000  0.000000  0.400000      2.000000
  0.111111  0.000000  0.400000     12.000000
  0.222222  0.000000  0.400000     12.000000
  0.333333  0.000000  0.400000     12.000000
  0.444444  0.000000  0.400000     12.000000
  0.111111  0.111111  0.400000     12.000000
  0.222222  0.111111  0.400000     24.000000
  0.333333  0.111111  0.400000     24.000000
  0.444444  0.111111  0.400000     12.000000
  0.222222  0.222222  0.400000     12.000000
  0.333333  0.222222  0.400000     24.000000
  0.333333  0.333333  0.400000      4.000000
 
 Following cartesian coordinates:
            Coordinates               Weight
  0.000000  0.000000  0.000000      1.000000
  0.033783  0.019504  0.000000      6.000000
  0.067565  0.039009  0.000000      6.000000
  0.101348  0.058513  0.000000      6.000000
  0.135131  0.078018  0.000000      6.000000
  0.033783  0.058513  0.000000      6.000000
  0.067565  0.078018  0.000000     12.000000
  0.101348  0.097522  0.000000     12.000000
  0.135131  0.117026  0.000000      6.000000
  0.067565  0.117026  0.000000      6.000000
  0.101348  0.136531  0.000000     12.000000
  0.101348  0.175540  0.000000      2.000000
  0.000000  0.000000  0.037686      2.000000
  0.033783  0.019504  0.037686     12.000000
  0.067565  0.039009  0.037686     12.000000
  0.101348  0.058513  0.037686     12.000000
  0.135131  0.078018  0.037686     12.000000
  0.033783  0.058513  0.037686     12.000000
  0.067565  0.078018  0.037686     24.000000
  0.101348  0.097522  0.037686     24.000000
  0.135131  0.117026  0.037686     12.000000
  0.067565  0.117026  0.037686     12.000000
  0.101348  0.136531  0.037686     24.000000
  0.101348  0.175540  0.037686      4.000000
  0.000000  0.000000  0.075372      2.000000
  0.033783  0.019504  0.075372     12.000000
  0.067565  0.039009  0.075372     12.000000
  0.101348  0.058513  0.075372     12.000000
  0.135131  0.078018  0.075372     12.000000
  0.033783  0.058513  0.075372     12.000000
  0.067565  0.078018  0.075372     24.000000
  0.101348  0.097522  0.075372     24.000000
  0.135131  0.117026  0.075372     12.000000
  0.067565  0.117026  0.075372     12.000000
  0.101348  0.136531  0.075372     24.000000
  0.101348  0.175540  0.075372      4.000000
 


--------------------------------------------------------------------------------------------------------




 Dimension of arrays:
   k-points           NKPTS =     36   k-points in BZ     NKDIM =     36   number of bands    NBANDS=     32
   number of dos      NEDOS =    301   number of ions     NIONS =      4
   non local maximal  LDIM  =      6   non local SUM 2l+1 LMDIM =     18
   total plane-waves  NPLWV =   7168
   max r-space proj   IRMAX =   1638   max aug-charges    IRDMAX=  34574
   dimension x,y,z NGX =    16 NGY =   16 NGZ =   28
   dimension x,y,z NGXF=    32 NGYF=   32 NGZF=   56
   support grid    NGXF=    64 NGYF=   64 NGZF=  112
   ions per type =               2   2
   NGX,Y,Z   is equivalent  to a cutoff of   8.09,  8.09,  8.77 a.u.
   NGXF,Y,Z  is equivalent  to a cutoff of  16.17, 16.17, 17.54 a.u.

 SYSTEM =  unknown system                          
 POSCAR =  Zn2 O2                                  

 Startparameter for this run:
   NWRITE =      2    write-flag & timer
   PREC   = normal    normal or accurate (medium, high low for compatibility)
   ISTART =      0    job   : 0-new  1-cont  2-samecut
   ICHARG =      2    charge: 1-file 2-atom 10-const
   ISPIN  =      1    spin polarized calculation?
   LNONCOLLINEAR =      F non collinear calculations
   LSORBIT =      F    spin-orbit coupling
   INIWAV =      1    electr: 0-lowe 1-rand  2-diag
   LASPH  =      F    aspherical Exc in radial PAW
   METAGGA=      F    non-selfconsistent MetaGGA calc.

 Electronic Relaxation 1
   ENCUT  =  400.0 eV  29.40 Ry    5.42 a.u.   5.36  5.36  8.65*2*pi/ulx,y,z
   ENINI  =  400.0     initial cutoff
   ENAUG  =  605.4 eV  augmentation charge cutoff
   NELM   =     60;   NELMIN=  2; NELMDL=  0     # of ELM steps 
   EDIFF  = 0.1E-05   stopping-criterion for ELM
   LREAL  =      T    real-space projection
   NLSPLINE    = F    spline interpolate recip. space projectors
   LCOMPAT=      F    compatible to vasp.4.4
   GGA_COMPAT  = T    GGA compatible to vasp.4.4-vasp.4.6
   LMAXPAW     = -100 max onsite density
   LMAXMIX     =    2 max onsite mixed and CHGCAR
   VOSKOWN=      0    Vosko Wilk Nusair interpolation
   ROPT   =   -0.00050  -0.00050
 Ionic relaxation
   EDIFFG = -.1E-01   stopping-criterion for IOM
   NSW    =    300    number of steps for IOM
   NBLOCK =      1;   KBLOCK =    300    inner block; outer block 
   IBRION =      2    ionic relax: 0-MD 1-quasi-New 2-CG
   NFREE  =      1    steps in history (QN), initial steepest desc. (CG)
   ISIF   =      3    stress and relaxation
   IWAVPR =     11    prediction:  0-non 1-charg 2-wave 3-comb
   ISYM   =      2    0-nonsym 1-usesym 2-fastsym
   LCORR  =      T    Harris-Foulkes like correction to forces

   POTIM  = 0.5000    time-step for ionic-motion
   TEIN   =    0.0    initial temperature
   TEBEG  =    0.0;   TEEND  =   0.0 temperature during run
   SMASS  =  -3.00    Nose mass-parameter (am)
   estimated Nose-frequenzy (Omega)   =  0.10E-29 period in steps =****** mass=  -0.247E-27a.u.
   SCALEE = 1.0000    scale energy and forces
   NPACO  =    256;   APACO  = 16.0  distance and # of slots for P.C.
   PSTRESS=    0.0 pullay stress

  Mass of Ions in am
   POMASS =  16.00 65.39
  Ionic Valenz
   ZVAL   =   6.00 12.00
  Atomic Wigner-Seitz radii
   RWIGS  =  -1.00 -1.00
  virtual crystal weights 
   VCA    =   1.00  1.00
   NELECT =      36.0000    total number of electrons
   NUPDOWN=      -1.0000    fix difference up-down

 DOS related values:
   EMIN   =  10.00;   EMAX   =-10.00  energy-range for DOS
   EFERMI =   0.00
   ISMEAR =     0;   SIGMA  =   0.05  broadening in eV -4-tet -1-fermi 0-gaus

 Electronic relaxation 2 (details)
   IALGO  =     38    algorithm
   LDIAG  =      T    sub-space diagonalisation (order eigenvalues)
   LSUBROT=      F    optimize rotation matrix (better conditioning)
   TURBO    =      0    0=normal 1=particle mesh
   IRESTART =      0    0=no restart 2=restart with 2 vectors
   NREBOOT  =      0    no. of reboots
   NMIN     =      0    reboot dimension
   EREF     =   0.00    reference energy to select bands
   IMIX   =      4    mixing-type and parameters
     AMIX     =   0.40;   BMIX     =  1.00
     AMIX_MAG =   1.60;   BMIX_MAG =  1.00
     AMIN     =   0.10
     WC   =   100.;   INIMIX=   1;  MIXPRE=   1;  MAXMIX= -45

 Intra band minimization:
   WEIMIN = 0.0010     energy-eigenvalue tresh-hold
   EBREAK =  0.78E-08  absolut break condition
   DEPER  =   0.30     relativ break condition  

   TIME   =   0.40     timestep for ELM

  volume/ion in A,a.u.               =      12.43        83.88
  Fermi-wavevector in a.u.,A,eV,Ry     =   1.470076  2.778040 29.403860  2.161123
  Thomas-Fermi vector in A             =   2.585376
 
 Write flags
   LWAVE        =      T    write WAVECAR
   LDOWNSAMPLE  =      F    k-point downsampling of WAVECAR
   LCHARG       =      T    write CHGCAR
   LVTOT        =      F    write LOCPOT, total local potential
   LVHAR        =      F    write LOCPOT, Hartree potential only
   LELF         =      F    write electronic localiz. function (ELF)
   LORBIT       =      0    0 simple, 1 ext, 2 COOP (PROOUT), +10 PAW based schemes


 Dipole corrections
   LMONO  =      F    monopole corrections only (constant potential shift)
   LDIPOL =      F    correct potential (dipole corrections)
   IDIPOL =      0    1-x, 2-y, 3-z, 4-all directions 
   EPSILON=  1.0000000 bulk dielectric constant

 Exchange correlation treatment:
   GGA     =    --    GGA type
   LEXCH   =     8    internal setting for exchange type
   VOSKOWN=      0    Vosko Wilk Nusair interpolation
   LHFCALC =     F    Hartree Fock is set to
   LHFONE  =     F    Hartree Fock one center treatment
   AEXX    =    0.0000 exact exchange contribution

 Linear response parameters
   LEPSILON=     F    determine dielectric tensor
   LRPA    =     F    only Hartree local field effects (RPA)
   LNABLA  =     F    use nabla operator in PAW spheres
   LVEL    =     F    velocity operator in full k-point grid
   LINTERFAST=   F  fast interpolation
   KINTER  =     0    interpolate to denser k-point grid
   CSHIFT  =0.1000    complex shift for real part using Kramers Kronig
   OMEGAMAX=  -1.0    maximum frequency
   DEG_THRESHOLD= 0.2000000E-02 threshold for treating states as degnerate
   RTIME   =   -0.100 relaxation time in fs
  (WPLASMAI=    0.000 imaginary part of plasma frequency in eV, 0.658/RTIME)
   DFIELD  = 0.0000000 0.0000000 0.0000000 field for delta impulse in time
 
 Orbital magnetization related:
   ORBITALMAG=     F  switch on orbital magnetization
   LCHIMAG   =     F  perturbation theory with respect to B field
   DQ        =  0.001000  dq finite difference perturbation B field
   LLRAUG    =     F  two centre corrections for induced B field



--------------------------------------------------------------------------------------------------------


 conjugate gradient relaxation of ions
 charge density and potential will be updated during run
 non-spin polarized calculation
 Variant of blocked Davidson
 Davidson routine will perform the subspace rotation
 perform sub-space diagonalisation
    after iterative eigenvector-optimisation
 modified Broyden-mixing scheme, WC =      100.0
 initial mixing is a Kerker type mixing with AMIX =  0.4000 and BMIX =      1.0000
 Hartree-type preconditioning will be used
 using additional bands           14
 real space projection scheme for non local part
 use partial core corrections
 calculate Harris-corrections to forces 
   (improved forces if not selfconsistent)
 use gradient corrections 
 use of overlap-Matrix (Vanderbilt PP)
 Gauss-broadening in eV      SIGMA  =   0.05


--------------------------------------------------------------------------------------------------------


  energy-cutoff  :      400.00
  volume of cell :       49.72
      direct lattice vectors                 reciprocal lattice vectors
     3.289000000  0.000000000  0.000000000     0.304043782  0.175539609  0.000000000
    -1.644500000  2.848360000  0.000000000     0.000000000  0.351079218  0.000000000
     0.000000000  0.000000000  5.307000000     0.000000000  0.000000000  0.188430375

  length of vectors
     3.289000000  3.289002119  5.307000000     0.351079444  0.351079218  0.188430375


 
 k-points in units of 2pi/SCALE and weight: K-Mesh Generated with KP-Resolved Value 
   0.00000000  0.00000000  0.00000000       0.002
   0.03378264  0.01950440  0.00000000       0.015
   0.06756528  0.03900880  0.00000000       0.015
   0.10134793  0.05851320  0.00000000       0.015
   0.13513057  0.07801760  0.00000000       0.015
   0.03378264  0.05851320  0.00000000       0.015
   0.06756528  0.07801760  0.00000000       0.030
   0.10134793  0.09752200  0.00000000       0.030
   0.13513057  0.11702641  0.00000000       0.015
   0.06756528  0.11702641  0.00000000       0.015
   0.10134793  0.13653081  0.00000000       0.030
   0.10134793  0.17553961  0.00000000       0.005
   0.00000000  0.00000000  0.03768607       0.005
   0.03378264  0.01950440  0.03768607       0.030
   0.06756528  0.03900880  0.03768607       0.030
   0.10134793  0.05851320  0.03768607       0.030
   0.13513057  0.07801760  0.03768607       0.030
   0.03378264  0.05851320  0.03768607       0.030
   0.06756528  0.07801760  0.03768607       0.059
   0.10134793  0.09752200  0.03768607       0.059
   0.13513057  0.11702641  0.03768607       0.030
   0.06756528  0.11702641  0.03768607       0.030
   0.10134793  0.13653081  0.03768607       0.059
   0.10134793  0.17553961  0.03768607       0.010
   0.00000000  0.00000000  0.07537215       0.005
   0.03378264  0.01950440  0.07537215       0.030
   0.06756528  0.03900880  0.07537215       0.030
   0.10134793  0.05851320  0.07537215       0.030
   0.13513057  0.07801760  0.07537215       0.030
   0.03378264  0.05851320  0.07537215       0.030
   0.06756528  0.07801760  0.07537215       0.059
   0.10134793  0.09752200  0.07537215       0.059
   0.13513057  0.11702641  0.07537215       0.030
   0.06756528  0.11702641  0.07537215       0.030
   0.10134793  0.13653081  0.07537215       0.059
   0.10134793  0.17553961  0.07537215       0.010
 
 k-points in reciprocal lattice and weights: K-Mesh Generated with KP-Resolved Value 
   0.00000000  0.00000000  0.00000000       0.002
   0.11111111  0.00000000  0.00000000       0.015
   0.22222222  0.00000000  0.00000000       0.015
   0.33333333  0.00000000  0.00000000       0.015
   0.44444444  0.00000000  0.00000000       0.015
   0.11111111  0.11111111  0.00000000       0.015
   0.22222222  0.11111111  0.00000000       0.030
   0.33333333  0.11111111  0.00000000       0.030
   0.44444444  0.11111111  0.00000000       0.015
   0.22222222  0.22222222  0.00000000       0.015
   0.33333333  0.22222222  0.00000000       0.030
   0.33333333  0.33333333  0.00000000       0.005
   0.00000000  0.00000000  0.20000000       0.005
   0.11111111  0.00000000  0.20000000       0.030
   0.22222222  0.00000000  0.20000000       0.030
   0.33333333  0.00000000  0.20000000       0.030
   0.44444444  0.00000000  0.20000000       0.030
   0.11111111  0.11111111  0.20000000       0.030
   0.22222222  0.11111111  0.20000000       0.059
   0.33333333  0.11111111  0.20000000       0.059
   0.44444444  0.11111111  0.20000000       0.030
   0.22222222  0.22222222  0.20000000       0.030
   0.33333333  0.22222222  0.20000000       0.059
   0.33333333  0.33333333  0.20000000       0.010
   0.00000000  0.00000000  0.40000000       0.005
   0.11111111  0.00000000  0.40000000       0.030
   0.22222222  0.00000000  0.40000000       0.030
   0.33333333  0.00000000  0.40000000       0.030
   0.44444444  0.00000000  0.40000000       0.030
   0.11111111  0.11111111  0.40000000       0.030
   0.22222222  0.11111111  0.40000000       0.059
   0.33333333  0.11111111  0.40000000       0.059
   0.44444444  0.11111111  0.40000000       0.030
   0.22222222  0.22222222  0.40000000       0.030
   0.33333333  0.22222222  0.40000000       0.059
   0.33333333  0.33333333  0.40000000       0.010
 
 position of ions in fractional coordinates (direct lattice) 
   0.66666700  0.33333300  0.87976200
   0.33333300  0.66666700  0.37976200
   0.66666700  0.33333300  0.50054800
   0.33333300  0.66666700  0.00054800
 
 position of ions in cartesian coordinates  (Angst):
   1.64450164  0.94945238  4.66889693
  -0.00000164  1.89890762  2.01539693
   1.64450164  0.94945238  2.65640824
  -0.00000164  1.89890762  0.00290824
 


--------------------------------------------------------------------------------------------------------


 k-point  1 :   0.0000 0.0000 0.0000  plane waves:     917
 k-point  2 :   0.1111 0.0000 0.0000  plane waves:     913
 k-point  3 :   0.2222 0.0000 0.0000  plane waves:     903
 k-point  4 :   0.3333 0.0000 0.0000  plane waves:     905
 k-point  5 :   0.4444 0.0000 0.0000  plane waves:     898
 k-point  6 :   0.1111 0.1111 0.0000  plane waves:     901
 k-point  7 :   0.2222 0.1111 0.0000  plane waves:     911
 k-point  8 :   0.3333 0.1111 0.0000  plane waves:     902
 k-point  9 :   0.4444 0.1111 0.0000  plane waves:     906
 k-point 10 :   0.2222 0.2222 0.0000  plane waves:     907
 k-point 11 :   0.3333 0.2222 0.0000  plane waves:     901
 k-point 12 :   0.3333 0.3333 0.0000  plane waves:     912
 k-point 13 :   0.0000 0.0000 0.2000  plane waves:     917
 k-point 14 :   0.1111 0.0000 0.2000  plane waves:     909
 k-point 15 :   0.2222 0.0000 0.2000  plane waves:     906
 k-point 16 :   0.3333 0.0000 0.2000  plane waves:     899
 k-point 17 :   0.4444 0.0000 0.2000  plane waves:     902
 k-point 18 :   0.1111 0.1111 0.2000  plane waves:     914
 k-point 19 :   0.2222 0.1111 0.2000  plane waves:     903
 k-point 20 :   0.3333 0.1111 0.2000  plane waves:     902
 k-point 21 :   0.4444 0.1111 0.2000  plane waves:     901
 k-point 22 :   0.2222 0.2222 0.2000  plane waves:     902
 k-point 23 :   0.3333 0.2222 0.2000  plane waves:     900
 k-point 24 :   0.3333 0.3333 0.2000  plane waves:     903
 k-point 25 :   0.0000 0.0000 0.4000  plane waves:     924
 k-point 26 :   0.1111 0.0000 0.4000  plane waves:     913
 k-point 27 :   0.2222 0.0000 0.4000  plane waves:     910
 k-point 28 :   0.3333 0.0000 0.4000  plane waves:     904
 k-point 29 :   0.4444 0.0000 0.4000  plane waves:     899
 k-point 30 :   0.1111 0.1111 0.4000  plane waves:     908
 k-point 31 :   0.2222 0.1111 0.4000  plane waves:     898
 k-point 32 :   0.3333 0.1111 0.4000  plane waves:     901
 k-point 33 :   0.4444 0.1111 0.4000  plane waves:     905
 k-point 34 :   0.2222 0.2222 0.4000  plane waves:     897
 k-point 35 :   0.3333 0.2222 0.4000  plane waves:     901
 k-point 36 :   0.3333 0.3333 0.4000  plane waves:     894

 maximum and minimum number of plane-waves per node :       924      894

 maximum number of plane-waves:       924
 maximum index in each direction: 
   IXMAX=    5   IYMAX=    5   IZMAX=    8
   IXMIN=   -5   IYMIN=   -5   IZMIN=   -9


 serial   3D FFT for wavefunctions
 parallel 3D FFT for charge:
    minimum data exchange during FFTs selected (reduces bandwidth)


 total amount of memory used by VASP MPI-rank0    33043. kBytes
=======================================================================

   base      :      30000. kBytes
   nonlr-proj:        778. kBytes
   fftplans  :        565. kBytes
   grid      :        496. kBytes
   one-center:         62. kBytes
   wavefun   :       1142. kBytes
 
     INWAV:  cpu time    0.0000: real time    0.0000
 Broyden mixing: mesh for mixing (old mesh)
   NGX = 11   NGY = 11   NGZ = 17
  (NGX  = 32   NGY  = 32   NGZ  = 56)
  gives a total of   2057 points

 initial charge density was supplied:
 charge density of overlapping atoms calculated
 number of electron      36.0000000 magnetization 
 keeping initial charge density in first step


--------------------------------------------------------------------------------------------------------


 Maximum index for non-local projection operator         1542
 Maximum index for augmentation-charges         1985 (set IRDMAX)


--------------------------------------------------------------------------------------------------------


 First call to EWALD:  gamma=   0.482
 Maximum number of real-space cells 3x 3x 2
 Maximum number of reciprocal cells 3x 3x 4

    FEWALD:  cpu time    0.0010: real time    0.0019


--------------------------------------- Iteration      1(   1)  ---------------------------------------


    POTLOK:  cpu time    0.0090: real time    0.0122
    SETDIJ:  cpu time    0.0100: real time    0.0100
     EDDAV:  cpu time    0.4879: real time    0.4888
       DOS:  cpu time    0.0010: real time    0.0007
    --------------------------------------------
      LOOP:  cpu time    0.5079: real time    0.5118

 eigenvalue-minimisations  :  2304
 total energy-change (2. order) : 0.1720240E+03  (-0.1568690E+04)
 number of electron      36.0000000 magnetization 
 augmentation part       36.0000000 magnetization 

 Free energy of the ion-electron system (eV)
  ---------------------------------------------------
  alpha Z        PSCENC =       224.50030847
  Ewald energy   TEWEN  =     -2920.10875832
  -Hartree energ DENC   =     -1311.51769984
  -exchange      EXHF   =         0.00000000
  -V(xc)+E(xc)   XCENC  =       169.29796849
  PAW double counting   =      3136.89643137    -3495.73942061
  entropy T*S    EENTRO =        -0.00192316
  eigenvalues    EBANDS =         6.00655527
  atomic energy  EATOM  =      4362.69053732
  Solvation  Ediel_sol  =         0.00000000
  ---------------------------------------------------
  free energy    TOTEN  =       172.02399898 eV

  energy without entropy =      172.02592214  energy(sigma->0) =      172.02496056


--------------------------------------------------------------------------------------------------------




--------------------------------------- Iteration      1(   2)  ---------------------------------------


     EDDAV:  cpu time    0.6269: real time    0.6301
       DOS:  cpu time    0.0010: real time    0.0004
    --------------------------------------------
      LOOP:  cpu time    0.6279: real time    0.6305

 eigenvalue-minimisations  :  2656
 total energy-change (2. order) :-0.1842222E+03  (-0.1707447E+03)
 number of electron      36.0000000 magnetization 
 augmentation part       36.0000000 magnetization 

 Free energy of the ion-electron system (eV)
  ---------------------------------------------------
  alpha Z        PSCENC =       224.50030847
  Ewald energy   TEWEN  =     -2920.10875832
  -Hartree energ DENC   =     -1311.51769984
  -exchange      EXHF   =         0.00000000
  -V(xc)+E(xc)   XCENC  =       169.29796849
  PAW double counting   =      3136.89643137    -3495.73942061
  entropy T*S    EENTRO =        -0.00000000
  eigenvalues    EBANDS =      -178.21758126
  atomic energy  EATOM  =      4362.69053732
  Solvation  Ediel_sol  =         0.00000000
  ---------------------------------------------------
  free energy    TOTEN  =       -12.19821439 eV

  energy without entropy =      -12.19821439  energy(sigma->0) =      -12.19821439


--------------------------------------------------------------------------------------------------------




--------------------------------------- Iteration      1(   3)  ---------------------------------------


     EDDAV:  cpu time    0.5579: real time    0.5585
       DOS:  cpu time    0.0000: real time    0.0004
    --------------------------------------------
      LOOP:  cpu time    0.5579: real time    0.5589

 eigenvalue-minimisations  :  2640
 total energy-change (2. order) :-0.9186838E+01  (-0.9159050E+01)
 number of electron      36.0000000 magnetization 
 augmentation part       36.0000000 magnetization 

 Free energy of the ion-electron system (eV)
  ---------------------------------------------------
  alpha Z        PSCENC =       224.50030847
  Ewald energy   TEWEN  =     -2920.10875832
  -Hartree energ DENC   =     -1311.51769984
  -exchange      EXHF   =         0.00000000
  -V(xc)+E(xc)   XCENC  =       169.29796849
  PAW double counting   =      3136.89643137    -3495.73942061
  entropy T*S    EENTRO =        -0.00000000
  eigenvalues    EBANDS =      -187.40441913
  atomic energy  EATOM  =      4362.69053732
  Solvation  Ediel_sol  =         0.00000000
  ---------------------------------------------------
  free energy    TOTEN  =       -21.38505226 eV

  energy without entropy =      -21.38505226  energy(sigma->0) =      -21.38505226


--------------------------------------------------------------------------------------------------------




--------------------------------------- Iteration      1(   4)  ---------------------------------------


     EDDAV:  cpu time    0.6359: real time    0.6354
       DOS:  cpu time    0.0000: real time    0.0003
    --------------------------------------------
      LOOP:  cpu time    0.6359: real time    0.6357

 eigenvalue-minimisations  :  2928
 total energy-change (2. order) :-0.4099883E-01  (-0.4099775E-01)
 number of electron      36.0000000 magnetization 
 augmentation part       36.0000000 magnetization 

 Free energy of the ion-electron system (eV)
  ---------------------------------------------------
  alpha Z        PSCENC =       224.50030847
  Ewald energy   TEWEN  =     -2920.10875832
  -Hartree energ DENC   =     -1311.51769984
  -exchange      EXHF   =         0.00000000
  -V(xc)+E(xc)   XCENC  =       169.29796849
  PAW double counting   =      3136.89643137    -3495.73942061
  entropy T*S    EENTRO =        -0.00000000
  eigenvalues    EBANDS =      -187.44541796
  atomic energy  EATOM  =      4362.69053732
  Solvation  Ediel_sol  =         0.00000000
  ---------------------------------------------------
  free energy    TOTEN  =       -21.42605109 eV

  energy without entropy =      -21.42605109  energy(sigma->0) =      -21.42605109


--------------------------------------------------------------------------------------------------------




--------------------------------------- Iteration      1(   5)  ---------------------------------------


     EDDAV:  cpu time    0.5899: real time    0.5895
       DOS:  cpu time    0.0000: real time    0.0004
    CHARGE:  cpu time    0.0150: real time    0.0151
    MIXING:  cpu time    0.0010: real time    0.0006
    --------------------------------------------
      LOOP:  cpu time    0.6059: real time    0.6057

 eigenvalue-minimisations  :  2736
 total energy-change (2. order) :-0.1488252E-03  (-0.1488250E-03)
 number of electron      35.9999997 magnetization 
 augmentation part       17.8183863 magnetization 

 Broyden mixing:
  rms(total) = 0.10224E+01    rms(broyden)= 0.10221E+01
  rms(prec ) = 0.21002E+01
  weight for this iteration     100.00

 Free energy of the ion-electron system (eV)
  ---------------------------------------------------
  alpha Z        PSCENC =       224.50030847
  Ewald energy   TEWEN  =     -2920.10875832
  -Hartree energ DENC   =     -1311.51769984
  -exchange      EXHF   =         0.00000000
  -V(xc)+E(xc)   XCENC  =       169.29796849
  PAW double counting   =      3136.89643137    -3495.73942061
  entropy T*S    EENTRO =        -0.00000000
  eigenvalues    EBANDS =      -187.44556678
  atomic energy  EATOM  =      4362.69053732
  Solvation  Ediel_sol  =         0.00000000
  ---------------------------------------------------
  free energy    TOTEN  =       -21.42619991 eV

  energy without entropy =      -21.42619991  energy(sigma->0) =      -21.42619991


--------------------------------------------------------------------------------------------------------




--------------------------------------- Iteration      1(   6)  ---------------------------------------


    POTLOK:  cpu time    0.0040: real time    0.0042
    SETDIJ:  cpu time    0.0050: real time    0.0051
     EDDAV:  cpu time    0.7919: real time    0.7920
       DOS:  cpu time    0.0010: real time    0.0005
    CHARGE:  cpu time    0.0140: real time    0.0140
    MIXING:  cpu time    0.0000: real time    0.0004
    --------------------------------------------
      LOOP:  cpu time    0.8159: real time    0.8162

 eigenvalue-minimisations  :  3616
 total energy-change (2. order) : 0.3186220E+01  (-0.5884183E+00)
 number of electron      35.9999997 magnetization 
 augmentation part       17.5201844 magnetization 

 Broyden mixing:
  rms(total) = 0.32856E+00    rms(broyden)= 0.32791E+00
  rms(prec ) = 0.47010E+00
  weight for this iteration     100.00

 eigenvalues of (default mixing * dielectric matrix)
  average eigenvalue GAMMA=   0.8179
  0.8179

 Free energy of the ion-electron system (eV)
  ---------------------------------------------------
  alpha Z        PSCENC =       224.50030847
  Ewald energy   TEWEN  =     -2920.10875832
  -Hartree energ DENC   =     -1336.26482325
  -exchange      EXHF   =         0.00000000
  -V(xc)+E(xc)   XCENC  =       171.45328222
  PAW double counting   =      3211.85906884    -3567.85911383
  entropy T*S    EENTRO =        -0.00000000
  eigenvalues    EBANDS =      -164.51048155
  atomic energy  EATOM  =      4362.69053732
  Solvation  Ediel_sol  =         0.00000000
  ---------------------------------------------------
  free energy    TOTEN  =       -18.23998010 eV

  energy without entropy =      -18.23998010  energy(sigma->0) =      -18.23998010


--------------------------------------------------------------------------------------------------------




--------------------------------------- Iteration      1(   7)  ---------------------------------------


    POTLOK:  cpu time    0.0040: real time    0.0042
    SETDIJ:  cpu time    0.0050: real time    0.0050
     EDDAV:  cpu time    0.5219: real time    0.5213
       DOS:  cpu time    0.0000: real time    0.0004
    CHARGE:  cpu time    0.0140: real time    0.0142
    MIXING:  cpu time    0.0000: real time    0.0004
    --------------------------------------------
      LOOP:  cpu time    0.5449: real time    0.5454

 eigenvalue-minimisations  :  2496
 total energy-change (2. order) :-0.3408122E-01  (-0.1449812E+00)
 number of electron      35.9999997 magnetization 
 augmentation part       17.4647978 magnetization 

 Broyden mixing:
  rms(total) = 0.22302E+00    rms(broyden)= 0.22296E+00
  rms(prec ) = 0.32518E+00
  weight for this iteration     100.00

 eigenvalues of (default mixing * dielectric matrix)
  average eigenvalue GAMMA=   1.5028
  1.0129  1.9928

 Free energy of the ion-electron system (eV)
  ---------------------------------------------------
  alpha Z        PSCENC =       224.50030847
  Ewald energy   TEWEN  =     -2920.10875832
  -Hartree energ DENC   =     -1336.20188110
  -exchange      EXHF   =         0.00000000
  -V(xc)+E(xc)   XCENC  =       171.38301183
  PAW double counting   =      3240.99725592    -3600.71410144
  entropy T*S    EENTRO =        -0.00000000
  eigenvalues    EBANDS =      -160.82043399
  atomic energy  EATOM  =      4362.69053732
  Solvation  Ediel_sol  =         0.00000000
  ---------------------------------------------------
  free energy    TOTEN  =       -18.27406131 eV

  energy without entropy =      -18.27406131  energy(sigma->0) =      -18.27406131


--------------------------------------------------------------------------------------------------------




--------------------------------------- Iteration      1(   8)  ---------------------------------------


    POTLOK:  cpu time    0.0050: real time    0.0042
    SETDIJ:  cpu time    0.0050: real time    0.0051
     EDDAV:  cpu time    0.5619: real time    0.5623
       DOS:  cpu time    0.0000: real time    0.0004
    CHARGE:  cpu time    0.0150: real time    0.0141
    MIXING:  cpu time    0.0000: real time    0.0004
    --------------------------------------------
      LOOP:  cpu time    0.5869: real time    0.5864

 eigenvalue-minimisations  :  2640
 total energy-change (2. order) : 0.2204809E-01  (-0.2321423E-01)
 number of electron      35.9999997 magnetization 
 augmentation part       17.5083185 magnetization 

 Broyden mixing:
  rms(total) = 0.74748E-01    rms(broyden)= 0.74709E-01
  rms(prec ) = 0.14872E+00
  weight for this iteration     100.00

 eigenvalues of (default mixing * dielectric matrix)
  average eigenvalue GAMMA=   1.4369
  2.5197  0.8955  0.8955

 Free energy of the ion-electron system (eV)
  ---------------------------------------------------
  alpha Z        PSCENC =       224.50030847
  Ewald energy   TEWEN  =     -2920.10875832
  -Hartree energ DENC   =     -1332.39474893
  -exchange      EXHF   =         0.00000000
  -V(xc)+E(xc)   XCENC  =       171.17607728
  PAW double counting   =      3275.80255050    -3636.56587614
  entropy T*S    EENTRO =        -0.00000000
  eigenvalues    EBANDS =      -163.35210341
  atomic energy  EATOM  =      4362.69053732
  Solvation  Ediel_sol  =         0.00000000
  ---------------------------------------------------
  free energy    TOTEN  =       -18.25201323 eV

  energy without entropy =      -18.25201323  energy(sigma->0) =      -18.25201323


--------------------------------------------------------------------------------------------------------




--------------------------------------- Iteration      1(   9)  ---------------------------------------


    POTLOK:  cpu time    0.0040: real time    0.0043
    SETDIJ:  cpu time    0.0050: real time    0.0051
     EDDAV:  cpu time    0.7209: real time    0.7206
       DOS:  cpu time    0.0000: real time    0.0004
    CHARGE:  cpu time    0.0140: real time    0.0140
    MIXING:  cpu time    0.0010: real time    0.0004
    --------------------------------------------
      LOOP:  cpu time    0.7449: real time    0.7448

 eigenvalue-minimisations  :  3392
 total energy-change (2. order) : 0.1327489E-01  (-0.2258702E-02)
 number of electron      35.9999997 magnetization 
 augmentation part       17.4814382 magnetization 

 Broyden mixing:
  rms(total) = 0.19813E-01    rms(broyden)= 0.19789E-01
  rms(prec ) = 0.28225E-01
  weight for this iteration     100.00

 eigenvalues of (default mixing * dielectric matrix)
  average eigenvalue GAMMA=   1.5289
  2.1527  2.1527  0.9051  0.9051

 Free energy of the ion-electron system (eV)
  ---------------------------------------------------
  alpha Z        PSCENC =       224.50030847
  Ewald energy   TEWEN  =     -2920.10875832
  -Hartree energ DENC   =     -1334.63102718
  -exchange      EXHF   =         0.00000000
  -V(xc)+E(xc)   XCENC  =       171.34366376
  PAW double counting   =      3287.21656432    -3648.53867268
  entropy T*S    EENTRO =        -0.00000000
  eigenvalues    EBANDS =      -160.71135403
  atomic energy  EATOM  =      4362.69053732
  Solvation  Ediel_sol  =         0.00000000
  ---------------------------------------------------
  free energy    TOTEN  =       -18.23873834 eV

  energy without entropy =      -18.23873834  energy(sigma->0) =      -18.23873834


--------------------------------------------------------------------------------------------------------




--------------------------------------- Iteration      1(  10)  ---------------------------------------


    POTLOK:  cpu time    0.0040: real time    0.0042
    SETDIJ:  cpu time    0.0050: real time    0.0051
     EDDAV:  cpu time    0.5179: real time    0.5182
       DOS:  cpu time    0.0010: real time    0.0004
    CHARGE:  cpu time    0.0140: real time    0.0141
    MIXING:  cpu time    0.0000: real time    0.0004
    --------------------------------------------
      LOOP:  cpu time    0.5419: real time    0.5424

 eigenvalue-minimisations  :  2448
 total energy-change (2. order) :-0.7024023E-03  (-0.1022684E-02)
 number of electron      35.9999997 magnetization 
 augmentation part       17.4726092 magnetization 

 Broyden mixing:
  rms(total) = 0.18069E-01    rms(broyden)= 0.18049E-01
  rms(prec ) = 0.27440E-01
  weight for this iteration     100.00

 eigenvalues of (default mixing * dielectric matrix)
  average eigenvalue GAMMA=   1.6236
  2.8957  2.3817  0.9326  0.9326  0.9753

 Free energy of the ion-electron system (eV)
  ---------------------------------------------------
  alpha Z        PSCENC =       224.50030847
  Ewald energy   TEWEN  =     -2920.10875832
  -Hartree energ DENC   =     -1335.31689796
  -exchange      EXHF   =         0.00000000
  -V(xc)+E(xc)   XCENC  =       171.37447039
  PAW double counting   =      3285.04409445    -3646.41718030
  entropy T*S    EENTRO =        -0.00000000
  eigenvalues    EBANDS =      -160.00601479
  atomic energy  EATOM  =      4362.69053732
  Solvation  Ediel_sol  =         0.00000000
  ---------------------------------------------------
  free energy    TOTEN  =       -18.23944074 eV

  energy without entropy =      -18.23944074  energy(sigma->0) =      -18.23944074


--------------------------------------------------------------------------------------------------------




--------------------------------------- Iteration      1(  11)  ---------------------------------------


    POTLOK:  cpu time    0.0040: real time    0.0042
    SETDIJ:  cpu time    0.0050: real time    0.0051
     EDDAV:  cpu time    0.5719: real time    0.5712
       DOS:  cpu time    0.0000: real time    0.0004
    CHARGE:  cpu time    0.0140: real time    0.0142
    MIXING:  cpu time    0.0010: real time    0.0004
    --------------------------------------------
      LOOP:  cpu time    0.5959: real time    0.5955

 eigenvalue-minimisations  :  2688
 total energy-change (2. order) : 0.1578642E-03  (-0.8029998E-04)
 number of electron      35.9999997 magnetization 
 augmentation part       17.4767283 magnetization 

 Broyden mixing:
  rms(total) = 0.20036E-02    rms(broyden)= 0.19608E-02
  rms(prec ) = 0.28559E-02
  weight for this iteration     100.00

 eigenvalues of (default mixing * dielectric matrix)
  average eigenvalue GAMMA=   1.5445
  2.6979  2.4933  0.9579  0.9579  1.0801  1.0801

 Free energy of the ion-electron system (eV)
  ---------------------------------------------------
  alpha Z        PSCENC =       224.50030847
  Ewald energy   TEWEN  =     -2920.10875832
  -Hartree energ DENC   =     -1335.01616973
  -exchange      EXHF   =         0.00000000
  -V(xc)+E(xc)   XCENC  =       171.35353862
  PAW double counting   =      3286.82784666    -3648.23633757
  entropy T*S    EENTRO =        -0.00000000
  eigenvalues    EBANDS =      -160.25024833
  atomic energy  EATOM  =      4362.69053732
  Solvation  Ediel_sol  =         0.00000000
  ---------------------------------------------------
  free energy    TOTEN  =       -18.23928287 eV

  energy without entropy =      -18.23928287  energy(sigma->0) =      -18.23928287


--------------------------------------------------------------------------------------------------------




--------------------------------------- Iteration      1(  12)  ---------------------------------------


    POTLOK:  cpu time    0.0040: real time    0.0043
    SETDIJ:  cpu time    0.0050: real time    0.0050
     EDDAV:  cpu time    0.6079: real time    0.6079
       DOS:  cpu time    0.0000: real time    0.0004
    CHARGE:  cpu time    0.0140: real time    0.0142
    MIXING:  cpu time    0.0010: real time    0.0005
    --------------------------------------------
      LOOP:  cpu time    0.6319: real time    0.6323

 eigenvalue-minimisations  :  2784
 total energy-change (2. order) :-0.3615338E-05  (-0.3045116E-05)
 number of electron      35.9999997 magnetization 
 augmentation part       17.4768428 magnetization 

 Broyden mixing:
  rms(total) = 0.14730E-02    rms(broyden)= 0.14177E-02
  rms(prec ) = 0.20873E-02
  weight for this iteration     100.00

 eigenvalues of (default mixing * dielectric matrix)
  average eigenvalue GAMMA=   1.7097
  3.0209  2.7950  2.3384  0.9426  0.9426  0.9643  0.9643

 Free energy of the ion-electron system (eV)
  ---------------------------------------------------
  alpha Z        PSCENC =       224.50030847
  Ewald energy   TEWEN  =     -2920.10875832
  -Hartree energ DENC   =     -1335.04744416
  -exchange      EXHF   =         0.00000000
  -V(xc)+E(xc)   XCENC  =       171.35503935
  PAW double counting   =      3286.74704734    -3648.14943407
  entropy T*S    EENTRO =        -0.00000000
  eigenvalues    EBANDS =      -160.22658242
  atomic energy  EATOM  =      4362.69053732
  Solvation  Ediel_sol  =         0.00000000
  ---------------------------------------------------
  free energy    TOTEN  =       -18.23928649 eV

  energy without entropy =      -18.23928649  energy(sigma->0) =      -18.23928649


--------------------------------------------------------------------------------------------------------




--------------------------------------- Iteration      1(  13)  ---------------------------------------


    POTLOK:  cpu time    0.0040: real time    0.0042
    SETDIJ:  cpu time    0.0050: real time    0.0051
     EDDAV:  cpu time    0.7609: real time    0.7607
       DOS:  cpu time    0.0000: real time    0.0004
    CHARGE:  cpu time    0.0150: real time    0.0143
    MIXING:  cpu time    0.0000: real time    0.0005
    --------------------------------------------
      LOOP:  cpu time    0.7849: real time    0.7851

 eigenvalue-minimisations  :  2784
 total energy-change (2. order) : 0.1031169E-05  (-0.5401225E-06)
 number of electron      35.9999997 magnetization 
 augmentation part       17.4770791 magnetization 

 Broyden mixing:
  rms(total) = 0.43094E-03    rms(broyden)= 0.16125E-03
  rms(prec ) = 0.29622E-03
  weight for this iteration     100.00
  WARNING: grid for Broyden might be to small

 eigenvalues of (default mixing * dielectric matrix)
  average eigenvalue GAMMA=   1.6438
  3.3055  2.6199  2.2905  0.9486  0.9486  1.0171  1.0102  1.0102

 Free energy of the ion-electron system (eV)
  ---------------------------------------------------
  alpha Z        PSCENC =       224.50030847
  Ewald energy   TEWEN  =     -2920.10875832
  -Hartree energ DENC   =     -1335.07090684
  -exchange      EXHF   =         0.00000000
  -V(xc)+E(xc)   XCENC  =       171.35573779
  PAW double counting   =      3286.62906611    -3648.01562764
  entropy T*S    EENTRO =        -0.00000000
  eigenvalues    EBANDS =      -160.21964234
  atomic energy  EATOM  =      4362.69053732
  Solvation  Ediel_sol  =         0.00000000
  ---------------------------------------------------
  free energy    TOTEN  =       -18.23928546 eV

  energy without entropy =      -18.23928546  energy(sigma->0) =      -18.23928546


--------------------------------------------------------------------------------------------------------




--------------------------------------- Iteration      1(  14)  ---------------------------------------


    POTLOK:  cpu time    0.0040: real time    0.0044
    SETDIJ:  cpu time    0.0050: real time    0.0051
     EDDAV:  cpu time    0.4779: real time    0.4774
       DOS:  cpu time    0.0000: real time    0.0004
    --------------------------------------------
      LOOP:  cpu time    0.4869: real time    0.4872

 eigenvalue-minimisations  :  2032
 total energy-change (2. order) : 0.2317211E-07  (-0.4775713E-07)
 number of electron      35.9999997 magnetization 
 augmentation part       17.4770791 magnetization 

 Free energy of the ion-electron system (eV)
  ---------------------------------------------------
  alpha Z        PSCENC =       224.50030847
  Ewald energy   TEWEN  =     -2920.10875832
  -Hartree energ DENC   =     -1335.06211337
  -exchange      EXHF   =         0.00000000
  -V(xc)+E(xc)   XCENC  =       171.35515269
  PAW double counting   =      3286.62406603    -3648.00914070
  entropy T*S    EENTRO =        -0.00000000
  eigenvalues    EBANDS =      -160.22933756
  atomic energy  EATOM  =      4362.69053732
  Solvation  Ediel_sol  =         0.00000000
  ---------------------------------------------------
  free energy    TOTEN  =       -18.23928544 eV

  energy without entropy =      -18.23928544  energy(sigma->0) =      -18.23928544


--------------------------------------------------------------------------------------------------------




 average (electrostatic) potential at core
  the test charge radii are     0.7215  0.9521
  (the norm of the test charge is              1.0000)
       1 -73.4471       2 -73.4472       3 -36.1379       4 -36.1380
 
 
 
 E-fermi :   1.1053     XC(G=0): -10.6804     alpha+bet : -7.5788


 k-point     1 :       0.0000    0.0000    0.0000
  band No.  band energies     occupation 
      1     -16.9281      2.00000
      2     -16.2757      2.00000
      3      -4.6896      2.00000
      4      -4.6894      2.00000
      5      -4.6498      2.00000
      6      -4.5111      2.00000
      7      -4.5110      2.00000
      8      -4.4939      2.00000
      9      -3.6360      2.00000
     10      -3.6360      2.00000
     11      -3.4458      2.00000
     12      -3.4458      2.00000
     13      -3.1775      2.00000
     14       0.0724      2.00000
     15       0.0734      2.00000
     16       0.7409      2.00000
     17       0.8229      2.00000
     18       0.8239      2.00000
     19       1.5503      0.00000
     20       5.9020      0.00000
     21       8.8853      0.00000
     22      13.5168      0.00000
     23      13.5168      0.00000
     24      14.5338      0.00000
     25      14.7118      0.00000
     26      14.7120      0.00000
     27      17.1967      0.00000
     28      18.8025      0.00000
     29      18.8025      0.00000
     30      20.4019      0.00000
     31      20.5019      0.00000
     32      20.5020      0.00000

 k-point     2 :       0.1111    0.0000    0.0000
  band No.  band energies     occupation 
      1     -16.8672      2.00000
      2     -16.2471      2.00000
      3      -4.7536      2.00000
      4      -4.6537      2.00000
      5      -4.6117      2.00000
      6      -4.5178      2.00000
      7      -4.4590      2.00000
      8      -4.4011      2.00000
      9      -3.6610      2.00000
     10      -3.6388      2.00000
     11      -3.4406      2.00000
     12      -3.3866      2.00000
     13      -3.1916      2.00000
     14      -0.3564      2.00000
     15      -0.0787      2.00000
     16       0.1174      2.00000
     17       0.6668      2.00000
     18       0.7357      2.00000
     19       2.4110      0.00000
     20       6.3893      0.00000
     21       8.8896      0.00000
     22      12.3715      0.00000
     23      13.6246      0.00000
     24      13.8476      0.00000
     25      14.6919      0.00000
     26      14.8402      0.00000
     27      16.5514      0.00000
     28      18.1564      0.00000
     29      19.0334      0.00000
     30      20.6556      0.00000
     31      21.7492      0.00000
     32      21.8928      0.00000

 k-point     3 :       0.2222    0.0000    0.0000
  band No.  band energies     occupation 
      1     -16.7032      2.00000
      2     -16.1803      2.00000
      3      -4.8751      2.00000
      4      -4.5893      2.00000
      5      -4.5693      2.00000
      6      -4.4564      2.00000
      7      -4.3151      2.00000
      8      -4.1570      2.00000
      9      -3.7207      2.00000
     10      -3.6256      2.00000
     11      -3.4296      2.00000
     12      -3.2329      2.00000
     13      -3.1980      2.00000
     14      -1.3274      2.00000
     15      -0.6822      2.00000
     16      -0.4684      2.00000
     17       0.4285      2.00000
     18       0.5139      2.00000
     19       3.6628      0.00000
     20       7.4156      0.00000
     21       8.8848      0.00000
     22      10.6994      0.00000
     23      12.4709      0.00000
     24      13.8871      0.00000
     25      14.1203      0.00000
     26      14.8095      0.00000
     27      15.9014      0.00000
     28      18.2375      0.00000
     29      18.8678      0.00000
     30      21.3853      0.00000
     31      23.3682      0.00000
     32      23.9620      0.00000

 k-point     4 :       0.3333    0.0000    0.0000
  band No.  band energies     occupation 
      1     -16.4946      2.00000
      2     -16.1205      2.00000
      3      -4.9342      2.00000
      4      -4.6136      2.00000
      5      -4.4926      2.00000
      6      -4.2886      2.00000
      7      -4.1228      2.00000
      8      -3.9793      2.00000
      9      -3.7044      2.00000
     10      -3.5664      2.00000
     11      -3.4169      2.00000
     12      -3.2418      2.00000
     13      -2.9539      2.00000
     14      -2.2379      2.00000
     15      -1.4050      2.00000
     16      -0.9275      2.00000
     17       0.0457      2.00000
     18       0.2474      2.00000
     19       4.9767      0.00000
     20       8.1715      0.00000
     21       8.6850      0.00000
     22       9.4828      0.00000
     23      11.5863      0.00000
     24      13.1395      0.00000
     25      14.0048      0.00000
     26      14.6379      0.00000
     27      16.2534      0.00000
     28      18.7673      0.00000
     29      19.4513      0.00000
     30      20.2259      0.00000
     31      23.7821      0.00000
     32      24.9191      0.00000

 k-point     5 :       0.4444    0.0000    0.0000
  band No.  band energies     occupation 
      1     -16.3311      2.00000
      2     -16.1032      2.00000
      3      -4.8864      2.00000
      4      -4.6340      2.00000
      5      -4.4573      2.00000
      6      -4.1031      2.00000
      7      -4.0480      2.00000
      8      -3.9772      2.00000
      9      -3.6050      2.00000
     10      -3.4917      2.00000
     11      -3.4045      2.00000
     12      -3.2651      2.00000
     13      -2.9297      2.00000
     14      -2.5282      2.00000
     15      -1.8427      2.00000
     16      -1.2521      2.00000
     17      -0.3307      2.00000
     18       0.0611      2.00000
     19       6.1542      0.00000
     20       7.8808      0.00000
     21       8.3463      0.00000
     22       9.0960      0.00000
     23      11.2441      0.00000
     24      13.0351      0.00000
     25      13.8436      0.00000
     26      14.7349      0.00000
     27      16.3253      0.00000
     28      18.8855      0.00000
     29      19.5706      0.00000
     30      20.7783      0.00000
     31      23.5098      0.00000
     32      24.9059      0.00000

 k-point     6 :       0.1111    0.1111    0.0000
  band No.  band energies     occupation 
      1     -16.7538      2.00000
      2     -16.1997      2.00000
      3      -4.8166      2.00000
      4      -4.6402      2.00000
      5      -4.5564      2.00000
      6      -4.5077      2.00000
      7      -4.3533      2.00000
      8      -4.2288      2.00000
      9      -3.6965      2.00000
     10      -3.6399      2.00000
     11      -3.4340      2.00000
     12      -3.2616      2.00000
     13      -3.2156      2.00000
     14      -0.9190      2.00000
     15      -0.7073      2.00000
     16      -0.2405      2.00000
     17       0.5156      2.00000
     18       0.5399      2.00000
     19       3.3339      0.00000
     20       7.1527      0.00000
     21       8.9066      0.00000
     22      11.2201      0.00000
     23      12.6865      0.00000
     24      13.7836      0.00000
     25      14.0157      0.00000
     26      15.3907      0.00000
     27      16.5178      0.00000
     28      16.5265      0.00000
     29      20.9575      0.00000
     30      21.0331      0.00000
     31      22.4107      0.00000
     32      22.4813      0.00000

 k-point     7 :       0.2222    0.1111    0.0000
  band No.  band energies     occupation 
      1     -16.5669      2.00000
      2     -16.1382      2.00000
      3      -4.8697      2.00000
      4      -4.6298      2.00000
      5      -4.5100      2.00000
      6      -4.3881      2.00000
      7      -4.1787      2.00000
      8      -4.0114      2.00000
      9      -3.7368      2.00000
     10      -3.6068      2.00000
     11      -3.4224      2.00000
     12      -3.2393      2.00000
     13      -3.0195      2.00000
     14      -1.7877      2.00000
     15      -1.3005      2.00000
     16      -0.8407      2.00000
     17       0.2068      2.00000
     18       0.2289      2.00000
     19       4.5888      0.00000
     20       8.0409      0.00000
     21       8.9734      0.00000
     22       9.9793      0.00000
     23      11.7798      0.00000
     24      12.9220      0.00000
     25      13.4953      0.00000
     26      15.2819      0.00000
     27      16.1927      0.00000
     28      17.5436      0.00000
     29      20.5918      0.00000
     30      21.4520      0.00000
     31      23.0540      0.00000
     32      24.2632      0.00000

 k-point     8 :       0.3333    0.1111    0.0000
  band No.  band energies     occupation 
      1     -16.3758      2.00000
      2     -16.1028      2.00000
      3      -4.8512      2.00000
      4      -4.5817      2.00000
      5      -4.4751      2.00000
      6      -4.2176      2.00000
      7      -4.0202      2.00000
      8      -3.9606      2.00000
      9      -3.6590      2.00000
     10      -3.5606      2.00000
     11      -3.4030      2.00000
     12      -3.1811      2.00000
     13      -2.9536      2.00000
     14      -2.3613      2.00000
     15      -1.7145      2.00000
     16      -1.3992      2.00000
     17      -0.2220      2.00000
     18      -0.0408      2.00000
     19       5.8912      0.00000
     20       8.3537      0.00000
     21       8.6521      0.00000
     22       9.2105      0.00000
     23      11.4077      0.00000
     24      12.6495      0.00000
     25      13.1434      0.00000
     26      14.7331      0.00000
     27      16.3872      0.00000
     28      18.8003      0.00000
     29      20.5243      0.00000
     30      20.8680      0.00000
     31      23.4711      0.00000
     32      25.0663      0.00000

 k-point     9 :       0.4444    0.1111    0.0000
  band No.  band energies     occupation 
      1     -16.2822      2.00000
      2     -16.1063      2.00000
      3      -4.8199      2.00000
      4      -4.5170      2.00000
      5      -4.4674      2.00000
      6      -4.1193      2.00000
      7      -4.0420      2.00000
      8      -3.9196      2.00000
      9      -3.6089      2.00000
     10      -3.5189      2.00000
     11      -3.3795      2.00000
     12      -3.3386      2.00000
     13      -2.8335      2.00000
     14      -2.5455      2.00000
     15      -1.9579      2.00000
     16      -1.4428      2.00000
     17      -0.5032      2.00000
     18      -0.1486      2.00000
     19       6.7458      0.00000
     20       7.9315      0.00000
     21       8.3830      0.00000
     22       9.0894      0.00000
     23      11.2150      0.00000
     24      12.9514      0.00000
     25      13.2087      0.00000
     26      14.2770      0.00000
     27      16.3642      0.00000
     28      19.4638      0.00000
     29      20.3605      0.00000
     30      20.9047      0.00000
     31      23.2912      0.00000
     32      25.2706      0.00000

 k-point    10 :       0.2222    0.2222    0.0000
  band No.  band energies     occupation 
      1     -16.3940      2.00000
      2     -16.1032      2.00000
      3      -4.7085      2.00000
      4      -4.6966      2.00000
      5      -4.4000      2.00000
      6      -4.3059      2.00000
      7      -4.0177      2.00000
      8      -3.9000      2.00000
      9      -3.7468      2.00000
     10      -3.5961      2.00000
     11      -3.4015      2.00000
     12      -3.1628      2.00000
     13      -2.9288      2.00000
     14      -2.0238      2.00000
     15      -1.8709      2.00000
     16      -1.5397      2.00000
     17      -0.2170      2.00000
     18      -0.1356      2.00000
     19       5.8623      0.00000
     20       8.3634      0.00000
     21       9.2698      0.00000
     22       9.4272      0.00000
     23      11.5173      0.00000
     24      12.1893      0.00000
     25      12.3260      0.00000
     26      15.3632      0.00000
     27      15.8562      0.00000
     28      18.3594      0.00000
     29      21.9990      0.00000
     30      22.6447      0.00000
     31      22.8009      0.00000
     32      23.7781      0.00000

 k-point    11 :       0.3333    0.2222    0.0000
  band No.  band energies     occupation 
      1     -16.2510      2.00000
      2     -16.1082      2.00000
      3      -4.7328      2.00000
      4      -4.4722      2.00000
      5      -4.2647      2.00000
      6      -4.2415      2.00000
      7      -3.9267      2.00000
      8      -3.8516      2.00000
      9      -3.6486      2.00000
     10      -3.6169      2.00000
     11      -3.3828      2.00000
     12      -3.2980      2.00000
     13      -2.8737      2.00000
     14      -2.4621      2.00000
     15      -2.2524      2.00000
     16      -1.4845      2.00000
     17      -0.6416      2.00000
     18      -0.4677      2.00000
     19       7.1485      0.00000
     20       8.4184      0.00000
     21       8.7020      0.00000
     22       9.1177      0.00000
     23      11.3571      0.00000
     24      11.9306      0.00000
     25      12.8279      0.00000
     26      14.3056      0.00000
     27      15.5682      0.00000
     28      19.9274      0.00000
     29      21.5387      0.00000
     30      22.7551      0.00000
     31      23.1314      0.00000
     32      23.7354      0.00000

 k-point    12 :       0.3333    0.3333    0.0000
  band No.  band energies     occupation 
      1     -16.1569      2.00000
      2     -16.1568      2.00000
      3      -4.7181      2.00000
      4      -4.3379      2.00000
      5      -4.3379      2.00000
      6      -3.9732      2.00000
      7      -3.7598      2.00000
      8      -3.7598      2.00000
      9      -3.6913      2.00000
     10      -3.5764      2.00000
     11      -3.5075      2.00000
     12      -3.5075      2.00000
     13      -2.7763      2.00000
     14      -2.6341      2.00000
     15      -2.6341      2.00000
     16      -1.0031      2.00000
     17      -1.0031      2.00000
     18      -0.8160      2.00000
     19       8.2840      0.00000
     20       8.2841      0.00000
     21       8.4832      0.00000
     22       8.8827      0.00000
     23      11.3790      0.00000
     24      11.3790      0.00000
     25      13.7963      0.00000
     26      14.1854      0.00000
     27      14.1854      0.00000
     28      21.6534      0.00000
     29      21.7096      0.00000
     30      21.7097      0.00000
     31      23.0068      0.00000
     32      25.2217      0.00000

 k-point    13 :       0.0000    0.0000    0.2000
  band No.  band energies     occupation 
      1     -16.8681      2.00000
      2     -16.3415      2.00000
      3      -4.7088      2.00000
      4      -4.6803      2.00000
      5      -4.6801      2.00000
      6      -4.6720      2.00000
      7      -4.5371      2.00000
      8      -4.5369      2.00000
      9      -3.6114      2.00000
     10      -3.6114      2.00000
     11      -3.4568      2.00000
     12      -3.4568      2.00000
     13      -2.7416      2.00000
     14       0.0226      2.00000
     15       0.1443      2.00000
     16       0.1453      2.00000
     17       0.7511      2.00000
     18       0.7521      2.00000
     19       2.3910      0.00000
     20       5.5738      0.00000
     21       9.1848      0.00000
     22      13.3528      0.00000
     23      13.5302      0.00000
     24      13.5302      0.00000
     25      14.4638      0.00000
     26      14.4640      0.00000
     27      17.6083      0.00000
     28      19.2036      0.00000
     29      19.2037      0.00000
     30      20.1218      0.00000
     31      20.9003      0.00000
     32      20.9006      0.00000

 k-point    14 :       0.1111    0.0000    0.2000
  band No.  band energies     occupation 
      1     -16.8098      2.00000
      2     -16.3086      2.00000
      3      -4.7896      2.00000
      4      -4.6746      2.00000
      5      -4.6422      2.00000
      6      -4.6102      2.00000
      7      -4.4883      2.00000
      8      -4.4862      2.00000
      9      -3.6302      2.00000
     10      -3.6144      2.00000
     11      -3.4534      2.00000
     12      -3.4335      2.00000
     13      -2.7103      2.00000
     14      -0.3360      2.00000
     15      -0.1799      2.00000
     16       0.0001      2.00000
     17       0.5659      2.00000
     18       0.6614      2.00000
     19       2.9175      0.00000
     20       6.0128      0.00000
     21       9.1988      0.00000
     22      12.4153      0.00000
     23      13.3477      0.00000
     24      13.6381      0.00000
     25      13.7684      0.00000
     26      14.5665      0.00000
     27      17.3616      0.00000
     28      18.7241      0.00000
     29      19.2995      0.00000
     30      20.5518      0.00000
     31      21.6599      0.00000
     32      22.0378      0.00000

 k-point    15 :       0.2222    0.0000    0.2000
  band No.  band energies     occupation 
      1     -16.6537      2.00000
      2     -16.2316      2.00000
      3      -4.9118      2.00000
      4      -4.6966      2.00000
      5      -4.5516      2.00000
      6      -4.4885      2.00000
      7      -4.3477      2.00000
      8      -4.3277      2.00000
      9      -3.6685      2.00000
     10      -3.6044      2.00000
     11      -3.4460      2.00000
     12      -3.3796      2.00000
     13      -2.6199      2.00000
     14      -1.2407      2.00000
     15      -0.8144      2.00000
     16      -0.3704      2.00000
     17       0.3392      2.00000
     18       0.4256      2.00000
     19       3.9514      0.00000
     20       6.8987      0.00000
     21       9.2013      0.00000
     22      10.7802      0.00000
     23      12.3268      0.00000
     24      13.5461      0.00000
     25      13.8950      0.00000
     26      14.6043      0.00000
     27      16.0385      0.00000
     28      18.8236      0.00000
     29      19.1189      0.00000
     30      21.7648      0.00000
     31      22.6773      0.00000
     32      23.8924      0.00000

 k-point    16 :       0.3333    0.0000    0.2000
  band No.  band energies     occupation 
      1     -16.4573      2.00000
      2     -16.1547      2.00000
      3      -4.9734      2.00000
      4      -4.7286      2.00000
      5      -4.4650      2.00000
      6      -4.3206      2.00000
      7      -4.1674      2.00000
      8      -4.1481      2.00000
      9      -3.6569      2.00000
     10      -3.5538      2.00000
     11      -3.4345      2.00000
     12      -3.3219      2.00000
     13      -2.6339      2.00000
     14      -2.0513      2.00000
     15      -1.4121      2.00000
     16      -0.8060      2.00000
     17       0.0584      2.00000
     18       0.1411      2.00000
     19       5.0895      0.00000
     20       7.5064      0.00000
     21       9.0650      0.00000
     22       9.5610      0.00000
     23      11.5710      0.00000
     24      13.2298      0.00000
     25      14.0284      0.00000
     26      14.5437      0.00000
     27      15.5349      0.00000
     28      18.9347      0.00000
     29      19.9215      0.00000
     30      21.1431      0.00000
     31      22.4326      0.00000
     32      25.2924      0.00000

 k-point    17 :       0.4444    0.0000    0.2000
  band No.  band energies     occupation 
      1     -16.3071      2.00000
      2     -16.1229      2.00000
      3      -4.9393      2.00000
      4      -4.7622      2.00000
      5      -4.4214      2.00000
      6      -4.1435      2.00000
      7      -4.1020      2.00000
      8      -4.0349      2.00000
      9      -3.5444      2.00000
     10      -3.4871      2.00000
     11      -3.4213      2.00000
     12      -3.2919      2.00000
     13      -2.9332      2.00000
     14      -2.5304      2.00000
     15      -1.5168      2.00000
     16      -1.1110      2.00000
     17      -0.2320      2.00000
     18      -0.0538      2.00000
     19       6.0536      0.00000
     20       7.4729      0.00000
     21       8.6541      0.00000
     22       9.1491      0.00000
     23      11.1974      0.00000
     24      13.2308      0.00000
     25      13.9195      0.00000
     26      14.6394      0.00000
     27      15.3993      0.00000
     28      18.9958      0.00000
     29      20.9017      0.00000
     30      21.1869      0.00000
     31      21.8097      0.00000
     32      25.1028      0.00000

 k-point    18 :       0.1111    0.1111    0.2000
  band No.  band energies     occupation 
      1     -16.7026      2.00000
      2     -16.2548      2.00000
      3      -4.8573      2.00000
      4      -4.7053      2.00000
      5      -4.5659      2.00000
      6      -4.5558      2.00000
      7      -4.3833      2.00000
      8      -4.3787      2.00000
      9      -3.6559      2.00000
     10      -3.6129      2.00000
     11      -3.4495      2.00000
     12      -3.3930      2.00000
     13      -2.6466      2.00000
     14      -0.8138      2.00000
     15      -0.8054      2.00000
     16      -0.2522      2.00000
     17       0.4153      2.00000
     18       0.4500      2.00000
     19       3.6735      0.00000
     20       6.6791      0.00000
     21       9.2181      0.00000
     22      11.2789      0.00000
     23      12.7304      0.00000
     24      13.1825      0.00000
     25      13.6719      0.00000
     26      14.8602      0.00000
[...]
     26      14.4808      0.00000
     27      18.7828      0.00000
     28      19.6538      0.00000
     29      20.4826      0.00000
     30      21.2482      0.00000
     31      21.9709      0.00000
     32      22.1734      0.00000

 k-point    27 :       0.2222    0.0000    0.4000
  band No.  band energies     occupation 
      1     -16.4717      2.00000
      2     -16.3005      2.00000
      3      -4.8877      2.00000
      4      -4.8308      2.00000
      5      -4.3775      2.00000
      6      -4.3759      2.00000
      7      -4.3234      2.00000
      8      -4.2969      2.00000
      9      -3.3716      2.00000
     10      -3.3550      2.00000
     11      -3.2905      2.00000
     12      -3.2621      2.00000
     13      -1.6816      2.00000
     14      -1.1571      2.00000
     15      -0.4544      2.00000
     16       0.0799      2.00000
     17       0.1377      2.00000
     18       0.3946      2.00000
     19       5.0628      0.00000
     20       6.1726      0.00000
     21      10.2300      0.00000
     22      10.9943      0.00000
     23      12.4583      0.00000
     24      12.9713      0.00000
     25      14.3786      0.00000
     26      14.6400      0.00000
     27      17.4132      0.00000
     28      18.8184      0.00000
     29      20.7129      0.00000
     30      22.6440      0.00000
     31      22.9263      0.00000
     32      23.3603      0.00000

 k-point    28 :       0.3333    0.0000    0.4000
  band No.  band energies     occupation 
      1     -16.2992      2.00000
      2     -16.1765      2.00000
      3      -4.9531      2.00000
      4      -4.8741      2.00000
      5      -4.2574      2.00000
      6      -4.2169      2.00000
      7      -4.1610      2.00000
      8      -4.1397      2.00000
      9      -3.3473      2.00000
     10      -3.3211      2.00000
     11      -3.2734      2.00000
     12      -3.2207      2.00000
     13      -2.1159      2.00000
     14      -1.8588      2.00000
     15      -0.6995      2.00000
     16      -0.3176      2.00000
     17      -0.0082      2.00000
     18       0.0560      2.00000
     19       5.8782      0.00000
     20       6.7883      0.00000
     21       9.7936      0.00000
     22       9.9882      0.00000
     23      12.0951      0.00000
     24      12.9309      0.00000
     25      14.5290      0.00000
     26      14.7388      0.00000
     27      16.4492      0.00000
     28      18.1877      0.00000
     29      21.6871      0.00000
     30      22.7372      0.00000
     31      22.8646      0.00000
     32      23.6171      0.00000

 k-point    29 :       0.4444    0.0000    0.4000
  band No.  band energies     occupation 
      1     -16.1761      2.00000
      2     -16.1007      2.00000
      3      -4.9490      2.00000
      4      -4.8995      2.00000
      5      -4.1868      2.00000
      6      -4.0574      2.00000
      7      -4.0331      2.00000
      8      -4.0313      2.00000
      9      -3.2715      2.00000
     10      -3.2471      2.00000
     11      -3.2464      2.00000
     12      -3.1539      2.00000
     13      -2.6436      2.00000
     14      -2.4854      2.00000
     15      -0.6200      2.00000
     16      -0.5911      2.00000
     17      -0.1772      2.00000
     18      -0.0885      2.00000
     19       6.4446      0.00000
     20       7.0336      0.00000
     21       9.3472      0.00000
     22       9.5542      0.00000
     23      11.8706      0.00000
     24      12.8926      0.00000
     25      14.5206      0.00000
     26      14.8194      0.00000
     27      16.2341      0.00000
     28      18.1158      0.00000
     29      22.2408      0.00000
     30      22.7372      0.00000
     31      22.8730      0.00000
     32      24.6783      0.00000

 k-point    30 :       0.1111    0.1111    0.4000
  band No.  band energies     occupation 
      1     -16.5152      2.00000
      2     -16.3339      2.00000
      3      -4.8436      2.00000
      4      -4.8163      2.00000
      5      -4.4391      2.00000
      6      -4.4281      2.00000
      7      -4.3476      2.00000
      8      -4.3215      2.00000
      9      -3.3688      2.00000
     10      -3.3593      2.00000
     11      -3.2929      2.00000
     12      -3.2679      2.00000
     13      -1.6429      2.00000
     14      -0.9897      2.00000
     15      -0.2728      2.00000
     16       0.1142      2.00000
     17       0.2599      2.00000
     18       0.4306      2.00000
     19       4.8551      0.00000
     20       5.9852      0.00000
     21      10.3246      0.00000
     22      11.3371      0.00000
     23      12.6725      0.00000
     24      12.9103      0.00000
     25      14.1492      0.00000
     26      14.6111      0.00000
     27      18.6131      0.00000
     28      18.6966      0.00000
     29      20.3574      0.00000
     30      21.3992      0.00000
     31      23.1369      0.00000
     32      24.0721      0.00000

 k-point    31 :       0.2222    0.1111    0.4000
  band No.  band energies     occupation 
      1     -16.3571      2.00000
      2     -16.2162      2.00000
      3      -4.8982      2.00000
      4      -4.8358      2.00000
      5      -4.3508      2.00000
      6      -4.3177      2.00000
      7      -4.2130      2.00000
      8      -4.1692      2.00000
      9      -3.3645      2.00000
     10      -3.3331      2.00000
     11      -3.2767      2.00000
     12      -3.2302      2.00000
     13      -1.8679      2.00000
     14      -1.5344      2.00000
     15      -0.6593      2.00000
     16      -0.3508      2.00000
     17       0.0093      2.00000
     18       0.0975      2.00000
     19       5.7100      0.00000
     20       6.7189      0.00000
     21      10.0456      0.00000
     22      10.4364      0.00000
     23      12.1228      0.00000
     24      12.4952      0.00000
     25      14.1005      0.00000
     26      14.8804      0.00000
     27      17.4539      0.00000
     28      18.5964      0.00000
     29      20.5126      0.00000
     30      21.6445      0.00000
     31      23.8179      0.00000
     32      24.0289      0.00000

 k-point    32 :       0.3333    0.1111    0.4000
  band No.  band energies     occupation 
      1     -16.2077      2.00000
      2     -16.1179      2.00000
      3      -4.8952      2.00000
      4      -4.8311      2.00000
      5      -4.2522      2.00000
      6      -4.1679      2.00000
      7      -4.0750      2.00000
      8      -4.0458      2.00000
      9      -3.3345      2.00000
     10      -3.2902      2.00000
     11      -3.2202      2.00000
     12      -3.1530      2.00000
     13      -2.4160      2.00000
     14      -2.1926      2.00000
     15      -0.8423      2.00000
     16      -0.5885      2.00000
     17      -0.3282      2.00000
     18      -0.0124      2.00000
     19       6.5170      0.00000
     20       7.2361      0.00000
     21       9.6015      0.00000
     22       9.7258      0.00000
     23      11.6101      0.00000
     24      12.2461      0.00000
     25      14.4203      0.00000
     26      15.1311      0.00000
     27      16.8515      0.00000
     28      18.1771      0.00000
     29      21.3705      0.00000
     30      22.3704      0.00000
     31      23.3946      0.00000
     32      23.8705      0.00000

 k-point    33 :       0.4444    0.1111    0.4000
  band No.  band energies     occupation 
      1     -16.1423      2.00000
      2     -16.0841      2.00000
      3      -4.8729      2.00000
      4      -4.8268      2.00000
      5      -4.2267      2.00000
      6      -4.0881      2.00000
      7      -3.9844      2.00000
      8      -3.9776      2.00000
      9      -3.2967      2.00000
     10      -3.2954      2.00000
     11      -3.1204      2.00000
     12      -3.0998      2.00000
     13      -2.6959      2.00000
     14      -2.6009      2.00000
     15      -0.9989      2.00000
     16      -0.5198      2.00000
     17      -0.4732      2.00000
     18      -0.0729      2.00000
     19       6.9024      0.00000
     20       7.4007      0.00000
     21       9.2871      0.00000
     22       9.5491      0.00000
     23      11.3760      0.00000
     24      12.1142      0.00000
     25      14.7921      0.00000
     26      15.0895      0.00000
     27      16.6973      0.00000
     28      18.1098      0.00000
     29      21.8061      0.00000
     30      22.5985      0.00000
     31      23.2919      0.00000
     32      23.5770      0.00000

 k-point    34 :       0.2222    0.2222    0.4000
  band No.  band energies     occupation 
      1     -16.2204      2.00000
      2     -16.1247      2.00000
      3      -4.8118      2.00000
      4      -4.7734      2.00000
      5      -4.2914      2.00000
      6      -4.2822      2.00000
      7      -4.0980      2.00000
      8      -4.0520      2.00000
      9      -3.3562      2.00000
     10      -3.2979      2.00000
     11      -3.2108      2.00000
     12      -3.1421      2.00000
     13      -2.2401      2.00000
     14      -1.9948      2.00000
     15      -1.0312      2.00000
     16      -0.7393      2.00000
     17      -0.4170      2.00000
     18       0.0113      2.00000
     19       6.6697      0.00000
     20       7.4412      0.00000
     21       9.8695      0.00000
     22       9.9444      0.00000
     23      11.3898      0.00000
     24      11.4811      0.00000
     25      14.2237      0.00000
     26      15.5630      0.00000
     27      17.3533      0.00000
     28      18.3401      0.00000
     29      21.0272      0.00000
     30      21.0918      0.00000
     31      24.1280      0.00000
     32      24.6485      0.00000

 k-point    35 :       0.3333    0.2222    0.4000
  band No.  band energies     occupation 
      1     -16.1210      2.00000
      2     -16.0737      2.00000
      3      -4.7141      2.00000
      4      -4.6673      2.00000
      5      -4.3265      2.00000
      6      -4.2014      2.00000
      7      -3.9407      2.00000
      8      -3.9333      2.00000
      9      -3.3721      2.00000
     10      -3.3369      2.00000
     11      -3.0857      2.00000
     12      -3.0012      2.00000
     13      -2.6201      2.00000
     14      -2.4442      2.00000
     15      -1.5136      2.00000
     16      -1.0004      2.00000
     17      -0.3908      2.00000
     18      -0.0892      2.00000
     19       7.6134      0.00000
     20       8.0702      0.00000
     21       9.4237      0.00000
     22       9.6935      0.00000
     23      10.4600      0.00000
     24      10.9285      0.00000
     25      15.0445      0.00000
     26      15.9740      0.00000
     27      17.0490      0.00000
     28      18.0272      0.00000
     29      20.6806      0.00000
     30      21.6406      0.00000
     31      23.9211      0.00000
     32      24.3501      0.00000

 k-point    36 :       0.3333    0.3333    0.4000
  band No.  band energies     occupation 
      1     -16.0714      2.00000
      2     -16.0713      2.00000
      3      -4.5412      2.00000
      4      -4.5412      2.00000
      5      -4.4519      2.00000
      6      -4.2531      2.00000
      7      -3.8158      2.00000
      8      -3.8158      2.00000
      9      -3.4529      2.00000
     10      -3.4184      2.00000
     11      -2.9613      2.00000
     12      -2.9613      2.00000
     13      -2.6014      2.00000
     14      -2.6013      2.00000
     15      -1.8801      2.00000
     16      -1.2979      2.00000
     17      -0.2259      2.00000
     18      -0.2258      2.00000
     19       8.9014      0.00000
     20       8.9014      0.00000
     21       8.9698      0.00000
     22       9.0997      0.00000
     23      10.0176      0.00000
     24      10.0176      0.00000
     25      15.7744      0.00000
     26      16.6604      0.00000
     27      16.6604      0.00000
     28      17.7448      0.00000
     29      20.6094      0.00000
     30      20.6094      0.00000
     31      24.5073      0.00000
     32      24.8771      0.00000


--------------------------------------------------------------------------------------------------------


 soft charge-density along one line, spin component           1
         0         1         2         3         4         5         6         7         8         9
 total charge-density along one line
 
 pseudopotential strength for first ion, spin component:           1
 12.674  -0.345   0.000  -0.000  -0.000  -0.000   0.000   0.000
 -0.345   0.083  -0.000   0.000   0.000   0.000  -0.000  -0.000
  0.000  -0.000  -8.980   0.000   0.000  -0.085  -0.000  -0.000
 -0.000   0.000   0.000  -8.979   0.000  -0.000  -0.085  -0.000
 -0.000   0.000   0.000   0.000  -8.980  -0.000  -0.000  -0.085
 -0.000   0.000  -0.085  -0.000  -0.000   0.245   0.000   0.000
  0.000  -0.000  -0.000  -0.085  -0.000   0.000   0.245   0.000
  0.000  -0.000  -0.000  -0.000  -0.085   0.000   0.000   0.245
 total augmentation occupancy for first ion, spin component:           1
  1.857   0.164   0.000  -0.001   0.000   0.000  -0.000   0.000
  0.164   0.030   0.000   0.000  -0.000   0.000  -0.000   0.000
  0.000   0.000   1.540  -0.000  -0.000   0.151  -0.000   0.000
 -0.001   0.000   0.000   1.542   0.000   0.000   0.150  -0.000
  0.000  -0.000   0.000   0.000   1.540  -0.000   0.000   0.151
  0.000   0.000   0.151  -0.000  -0.000   0.020  -0.000   0.000
 -0.000  -0.000   0.000   0.150   0.000  -0.000   0.019  -0.000
  0.000   0.000  -0.000  -0.000   0.151  -0.000   0.000   0.020


------------------------ aborting loop because EDIFF is reached ----------------------------------------


    CHARGE:  cpu time    0.0150: real time    0.0149
    FORLOC:  cpu time    0.0000: real time    0.0003
    FORNL :  cpu time    0.1080: real time    0.1081
    STRESS:  cpu time    0.3220: real time    0.3221
    FORCOR:  cpu time    0.0040: real time    0.0036
    FORHAR:  cpu time    0.0010: real time    0.0009
    MIXING:  cpu time    0.0000: real time    0.0004
    OFIELD:  cpu time    0.0000: real time    0.0000

  FORCE on cell =-STRESS in cart. coord.  units (eV):
  Direction    XX          YY          ZZ          XY          YZ          ZX
  --------------------------------------------------------------------------------------
  Alpha Z   230.59949   230.59949   230.59949
  Ewald    -992.21737  -992.21477  -961.88922     0.00302     0.00000     0.00000
  Hartree   430.91868   430.91987   458.30111     0.00110     0.00011    -0.00020
  E(xc)    -205.35591  -205.35577  -205.35324     0.00012     0.00002     0.00001
  Local     155.42722   155.41930    97.09579    -0.00723    -0.00048     0.00014
  n-local  -114.94213  -116.15443  -115.71426     2.87219     0.19439     0.23759
  augment    91.43857    91.44178    91.52602     0.00261     0.00008    -0.00001
  Kinetic   402.35366   407.14113   405.38936    -8.17637    -0.87502    -1.04348
  Fock        0.00000     0.00000     0.00000     0.00000     0.00000     0.00000
  -------------------------------------------------------------------------------------
  Total       0.00940     0.00940    -0.04495     0.00000     0.00000     0.00000
  in kB       0.31111     0.31111    -1.48796     0.00000     0.00000     0.00000
  external pressure =       -0.29 kB  Pullay stress =        0.00 kB


 VOLUME and BASIS-vectors are now :
 -----------------------------------------------------------------------------
  energy-cutoff  :      400.00
  volume of cell :       48.40
      direct lattice vectors                 reciprocal lattice vectors
     3.259693873  0.000000000 -0.000000000     0.306777274  0.177117792  0.000000000
    -1.629846937  2.822980085  0.000000000     0.000000000  0.354235584  0.000000000
     0.000000000 -0.000000000  5.259952246     0.000000000  0.000000000  0.190115794

  length of vectors
     3.259693873  3.259695936  5.259952246     0.354235809  0.354235584  0.190115794


 FORCES acting on ions
    electron-ion (+dipol)            ewald-force                    non-local-force                 convergence-correction
 -----------------------------------------------------------------------------------------------
   -.222E-02 0.156E-02 0.143E+01   -.818E-03 0.105E-03 -.151E+01   -.173E-17 -.347E-17 0.739E-01   0.930E-09 -.161E-08 -.130E-04
   0.495E-03 -.580E-03 0.143E+01   0.818E-03 -.105E-03 -.151E+01   0.694E-17 0.347E-17 0.739E-01   -.645E-11 0.884E-09 -.130E-04
   -.161E-03 0.356E-03 -.147E+01   -.882E-03 0.961E-04 0.151E+01   -.139E-16 0.173E-16 -.495E-01   -.545E-07 0.319E-07 0.250E-04
   0.199E-03 -.534E-03 -.146E+01   0.882E-03 -.961E-04 0.151E+01   0.520E-17 -.694E-17 -.495E-01   0.697E-07 -.382E-07 0.250E-04
 -----------------------------------------------------------------------------------------------
   -.168E-02 0.803E-03 -.608E-01   0.377E-14 0.632E-14 0.000E+00   -.347E-17 0.104E-16 0.488E-01   0.161E-07 -.700E-08 0.239E-04
 
 
 POSITION                                       TOTAL-FORCE (eV/Angst)
 -----------------------------------------------------------------------------------
      1.62985      0.94099      4.62742         0.000000     -0.000000     -0.002513
     -0.00000      1.88199      1.99745        -0.000000      0.000000     -0.002513
      1.62985      0.94099      2.63294         0.000000     -0.000000      0.002513
     -0.00000      1.88199      0.00297        -0.000000      0.000000      0.002513
 -----------------------------------------------------------------------------------
    total drift:                               -0.001685      0.000803     -0.011952


--------------------------------------------------------------------------------------------------------



  FREE ENERGIE OF THE ION-ELECTRON SYSTEM (eV)
  ---------------------------------------------------
  free  energy   TOTEN  =       -18.25737359 eV

  energy  without entropy=      -18.25737359  energy(sigma->0) =      -18.25737359
 
 d Force =-0.1069633E-05[-0.690E-06,-0.145E-05]  d Energy = 0.1182140E-01-0.118E-01
 d Force =-0.4178447E-03[-0.416E-03,-0.420E-03]  d Ewald  =-0.2113056E+02 0.211E+02


--------------------------------------------------------------------------------------------------------


    POTLOK:  cpu time    0.0090: real time    0.0094


--------------------------------------------------------------------------------------------------------


 stress matrix after NEB project (eV)
      0.00940      0.00000      0.00000
      0.00000      0.00940      0.00000
      0.00000      0.00000     -0.04495
  FORCES: max atom, RMS     0.002513    0.002513
  FORCE total and by dimension    0.005026    0.002513
  Stress total and by dimension    0.046876    0.044952


--------------------------------------------------------------------------------------------------------


  
 reached required accuracy - stopping structural energy minimisation
 writing wavefunctions
     LOOP+:  cpu time    5.6161: real time    5.6737
    4ORBIT:  cpu time    0.0000: real time    0.0000

 total amount of memory used by VASP MPI-rank0    33043. kBytes
=======================================================================

   base      :      30000. kBytes
   nonlr-proj:        778. kBytes
   fftplans  :        565. kBytes
   grid      :        496. kBytes
   one-center:         62. kBytes
   wavefun   :       1142. kBytes
 
  
  
 General timing and accounting informations for this job:
 ========================================================
  
                  Total CPU time used (sec):       22.400
                            User time (sec):       22.210
                          System time (sec):        0.190
                         Elapsed time (sec):       22.888
  
                   Maximum memory used (kb):       82472.
                   Average memory used (kb):           0.
  
                          Minor page faults:        17261
                          Major page faults:            1
                 Voluntary context switches:         1514
