    5    5    1    2
  0.1979414E+02  0.2459330E-09  0.2459330E-09  0.1889481E-08  0.5000000E-15
  1.000000000000000E-004
  CAR 
 CO adsorption on Ni(111)                
     50     12     36
 
  0.0000000E+00  0.0000000E+00  0.0000000E+00  0.1234568E-01
    1       -5.892093     -5.930498   1.000000   1.000000
    2       -4.970930     -5.005033   1.000000   1.000000
    3       -3.631121     -3.626420   1.000000   1.000000
    4       -2.423663     -2.287186   1.000000   1.000000
    5       -2.032403     -1.699553   1.000000   1.000000
    6        0.215649      0.848140   1.000000   1.000000
    7        0.308445      0.895718   1.000000   1.000000
    8        0.512122      1.130214   1.000000   1.000000
    9        0.523656      1.130230   1.000000   1.000000
   10        0.523665      1.155193   1.000000   1.000000
   11        0.576126      1.262457   1.000000   1.000000
   12        0.576132      1.262465   1.000000   1.000000
   13        0.618202      1.272104   1.000000   1.000000
   14        0.618209      1.272119   1.000000   1.000000
   15        0.824024      1.337451   1.000000   1.000000
   16        0.824031      1.509053   1.000000   1.000000
   17        0.850862      1.509064   1.000000   1.000000
   18        0.850868      1.513738   1.000000   1.000000
   19        0.889843      1.513750   1.000000   1.000000
   20        1.654050      2.252405   1.000000   0.999960
   21        1.654052      2.252405   1.000000   0.999960
   22        1.715935      2.374902   1.000000   0.999220
   23        1.715937      2.374902   1.000000   0.999220
   24        1.954776      2.576799   1.000000   0.997897
   25        1.954778      2.606314   1.000000   1.003508
   26        2.245739      2.606315   0.999967   1.003508
   27        2.245742      2.938150   0.999967   0.458875
   28        2.339133      2.938151   0.999635   0.458872
   29        2.339136      3.019692   0.999635   0.093494
   30        2.437619      3.061570   0.997689  -0.007931
   31        3.036434      3.061571   0.044880  -0.007933
   32        7.493569      7.472688   0.000000   0.000000
   33        8.515189      8.521589   0.000000   0.000000
   34        9.611968      9.778683   0.000000   0.000000
   35       11.892467     11.948549   0.000000   0.000000
   36       12.635200     12.714208   0.000000   0.000000
 
  0.1111111E+00 -0.5938487E-18  0.0000000E+00  0.7407407E-01
    1       -5.460754     -5.498147   1.000000   1.000000
    2       -4.556049     -4.588297   1.000000   1.000000
    3       -3.243173     -3.234363   1.000000   1.000000
    4       -2.070670     -1.922902   1.000000   1.000000
    5       -1.731577     -1.377907   1.000000   1.000000
    6        0.040007      0.644522   1.000000   1.000000
    7        0.143692      0.718000   1.000000   1.000000
    8        0.363741      0.913884   1.000000   1.000000
    9        0.383502      1.026990   1.000000   1.000000
   10        0.500627      1.140472   1.000000   1.000000
   11        0.569887      1.172950   1.000000   1.000000
   12        0.672624      1.313727   1.000000   1.000000
   13        0.709088      1.326722   1.000000   1.000000
   14        0.728825      1.397107   1.000000   1.000000
   15        0.771965      1.404952   1.000000   1.000000
   16        0.791731      1.456034   1.000000   1.000000
   17        0.803182      1.473072   1.000000   1.000000
   18        0.972433      1.657037   1.000000   1.000000
   19        1.023266      1.693298   1.000000   1.000000
   20        1.462236      1.982382   1.000000   1.000000
   21        1.534137      2.093364   1.000000   1.000000
   22        1.594020      2.148960   1.000000   0.999998
   23        1.618750      2.178074   1.000000   0.999996
   24        1.731074      2.371276   1.000000   0.999274
   25        1.848687      2.490499   1.000000   0.995776
   26        1.958876      2.600026   1.000000   1.002001
   27        2.244286      2.938328   0.999968   0.457941
   28        2.345356      2.984293   0.999581   0.230277
   29        2.397723      3.070184   0.998795  -0.020722
   30        3.468304      3.851546   0.001093   0.000000
   31        4.279345      4.522820   0.000000   0.000000
   32        7.865771      7.852079   0.000000   0.000000
   33        8.919339      8.926897   0.000000   0.000000
   34        9.868273     10.017401   0.000000   0.000000
   35       12.283138     12.327546   0.000000   0.000000
   36       12.958102     13.029935   0.000000   0.000000
 
  0.2222222E+00 -0.7892142E-18  0.0000000E+00  0.7407407E-01
    1       -4.253619     -4.278917   1.000000   1.000000
    2       -3.433875     -3.444111   1.000000   1.000000
    3       -2.286392     -2.230882   1.000000   1.000000
    4       -1.308489     -1.093291   1.000000   1.000000
    5       -1.073095     -0.648680   1.000000   1.000000
    6       -0.441717      0.107711   1.000000   1.000000
    7       -0.156194      0.414976   1.000000   1.000000
    8       -0.007702      0.567934   1.000000   1.000000
    9        0.067896      0.675512   1.000000   1.000000
   10        0.349240      0.872280   1.000000   1.000000
   11        0.507752      1.096207   1.000000   1.000000
   12        0.527554      1.126593   1.000000   1.000000
   13        0.721606      1.276538   1.000000   1.000000
   14        0.860448      1.487805   1.000000   1.000000
   15        0.905908      1.566063   1.000000   1.000000
   16        1.051808      1.591265   1.000000   1.000000
   17        1.139511      1.765661   1.000000   1.000000
   18        1.188288      1.863128   1.000000   1.000000
   19        1.292344      1.932621   1.000000   1.000000
   20        1.294158      1.941485   1.000000   1.000000
   21        1.467861      2.147110   1.000000   0.999999
   22        1.585213      2.222316   1.000000   0.999983
   23        1.600675      2.283374   1.000000   0.999907
   24        1.775090      2.424231   1.000000   0.998112
   25        1.967813      2.593960   1.000000   1.000713
   26        2.131060      2.774209   0.999999   1.038265
   27        2.235066      2.931641   0.999976   0.493258
   28        2.357902      3.088264   0.999450  -0.039654
   29        3.200333      3.705853  -0.023521   0.000002
   30        4.844045      5.162312   0.000000   0.000000
   31        6.221912      6.426966   0.000000   0.000000
   32        8.947826      8.950731   0.000000   0.000000
   33       10.125969     10.135492   0.000000   0.000000
   34       10.719483     10.809298   0.000000   0.000000
   35       13.454171     13.477733   0.000000   0.000000
   36       13.922894     13.977582   0.000000   0.000000
 
  0.3333333E+00 -0.4461005E-16  0.0000000E+00  0.7407407E-01
    1       -2.687068     -2.619451   1.000000   1.000000
    2       -2.188310     -2.062168   1.000000   1.000000
    3       -1.638500     -1.382593   1.000000   1.000000
    4       -1.137171     -0.772818   1.000000   1.000000
    5       -0.959870     -0.414582   1.000000   1.000000
    6       -0.820647     -0.285780   1.000000   1.000000
    7       -0.517716      0.021484   1.000000   1.000000
    8       -0.152334      0.347646   1.000000   1.000000
    9        0.222688      0.704527   1.000000   1.000000
   10        0.319009      0.858263   1.000000   1.000000
   11        0.546628      1.142849   1.000000   1.000000
   12        0.680039      1.250454   1.000000   1.000000
   13        0.787247      1.433788   1.000000   1.000000
   14        1.043782      1.534037   1.000000   1.000000
   15        1.124518      1.734181   1.000000   1.000000
   16        1.303880      1.793401   1.000000   1.000000
   17        1.440859      1.913973   1.000000   1.000000
   18        1.577984      2.198225   1.000000   0.999992
   19        1.838847      2.500452   1.000000   0.995471
   20        1.841378      2.562521   1.000000   0.996386
   21        1.942525      2.615361   1.000000   1.005990
   22        1.987767      2.646970   1.000000   1.017506
   23        2.061338      2.724957   1.000000   1.050170
   24        2.128071      2.842905   0.999999   0.900421
   25        2.164689      2.856485   0.999997   0.852208
   26        2.258837      2.966447   0.999952   0.313903
   27        2.372903      3.122466   0.999250  -0.051624
   28        2.678069      3.203288   1.031950  -0.022156
   29        4.349509      4.683256   0.000000   0.000000
   30        6.471468      6.692645   0.000000   0.000000
   31        8.532803      8.686801   0.000000   0.000000
   32       10.545126     10.582709   0.000000   0.000000
   33       11.663817     11.744227   0.000000   0.000000
   34       12.212858     12.221550   0.000000   0.000000
   35       12.558826     12.697341   0.000000   0.000000
   36       13.511029     13.659323   0.000000   0.000000
 
  0.4444444E+00 -0.1578428E-17  0.0000000E+00  0.7407407E-01
    1       -1.870718     -1.509707   1.000000   1.000000
    2       -1.694796     -1.382652   1.000000   1.000000
    3       -1.505837     -1.154372   1.000000   1.000000
    4       -1.229531     -0.799049   1.000000   1.000000
    5       -1.198249     -0.636316   1.000000   1.000000
    6       -0.999590     -0.531239   1.000000   1.000000
    7       -0.812699     -0.264500   1.000000   1.000000
    8       -0.264342      0.185020   1.000000   1.000000
    9        0.246442      0.750765   1.000000   1.000000
   10        0.391338      0.972354   1.000000   1.000000
   11        0.681555      1.309338   1.000000   1.000000
   12        0.787932      1.322827   1.000000   1.000000
   13        0.885192      1.380305   1.000000   1.000000
   14        1.058785      1.717248   1.000000   1.000000
   15        1.580795      2.141232   1.000000   0.999999
   16        1.613307      2.234595   1.000000   0.999976
   17        1.880870      2.464347   1.000000   0.996727
   18        2.093767      2.749239   1.000000   1.050601
   19        2.253061      2.953855   0.999959   0.377084
   20        2.315592      2.977455   0.999790   0.261357
   21        2.325377      3.034224   0.999735   0.050675
   22        2.355341      3.097157   0.999479  -0.045438
   23        2.414316      3.172643   0.998393  -0.036712
   24        2.550143      3.276314   0.995587   0.000998
   25        2.554953      3.301718   0.995847   0.003885
   26        2.934442      3.315494   0.478449   0.004618
   27        3.759359      4.122559   0.000000   0.000000
   28        4.321448      4.506604   0.000000   0.000000
   29        5.582232      5.694229   0.000000   0.000000
   30        6.750270      6.927343   0.000000   0.000000
   31        9.276097      9.600314   0.000000   0.000000
   32        9.860887     10.094096   0.000000   0.000000
   33       10.337360     10.523578   0.000000   0.000000
   34       11.304911     11.470533   0.000000   0.000000
   35       12.619857     12.765678   0.000000   0.000000
   36       13.644559     13.765857   0.000000   0.000000
 
  0.1111111E+00  0.1111111E+00  0.0000000E+00  0.7407407E-01
    1       -4.636376     -4.668385   1.000000   1.000000
    2       -3.778731     -3.801215   1.000000   1.000000
    3       -2.551447     -2.522479   1.000000   1.000000
    4       -1.473296     -1.296139   1.000000   1.000000
    5       -1.222446     -0.822857   1.000000   1.000000
    6       -0.181933      0.324940   1.000000   1.000000
    7       -0.179889      0.459616   1.000000   1.000000
    8        0.066110      0.629229   1.000000   1.000000
    9        0.122493      0.749126   1.000000   1.000000
   10        0.323924      0.870963   1.000000   1.000000
   11        0.451119      1.051519   1.000000   1.000000
   12        0.534950      1.153780   1.000000   1.000000
   13        0.661414      1.229322   1.000000   1.000000
   14        0.766322      1.435501   1.000000   1.000000
   15        0.830440      1.529315   1.000000   1.000000
   16        1.049191      1.653410   1.000000   1.000000
   17        1.097480      1.775040   1.000000   1.000000
   18        1.180069      1.819786   1.000000   1.000000
   19        1.251540      1.835465   1.000000   1.000000
   20        1.331334      1.902099   1.000000   1.000000
   21        1.404761      2.065279   1.000000   1.000000
   22        1.482369      2.116590   1.000000   1.000000
   23        1.605805      2.237254   1.000000   0.999974
   24        1.829706      2.450618   1.000000   0.997236
   25        1.850390      2.496839   1.000000   0.995576
   26        2.134628      2.809458   0.999999   0.989168
   27        2.185878      2.853200   0.999995   0.864492
   28        2.283782      3.003178   0.999906   0.151873
   29        2.998688      3.548894   0.169448   0.000192
   30        4.460440      4.799590   0.000000   0.000000
   31        5.667115      5.885986   0.000000   0.000000
   32        8.593992      8.592048   0.000000   0.000000
   33        9.726956      9.736086   0.000000   0.000000
   34       10.428538     10.538237   0.000000   0.000000
   35       13.070884     13.099998   0.000000   0.000000
   36       13.612060     13.671121   0.000000   0.000000
 
  0.2222222E+00  0.1111111E+00  0.0000000E+00  0.1481481E+00
    1       -3.190832     -3.185714   1.000000   1.000000
    2       -2.516709     -2.473811   1.000000   1.000000
    3       -1.658994     -1.505498   1.000000   1.000000
    4       -0.975679     -0.683037   1.000000   1.000000
    5       -0.726110     -0.208224   1.000000   1.000000
    6       -0.561590     -0.012831   1.000000   1.000000
    7       -0.257821      0.292150   1.000000   1.000000
    8       -0.215954      0.326258   1.000000   1.000000
    9       -0.082488      0.499429   1.000000   1.000000
   10        0.141021      0.676559   1.000000   1.000000
   11        0.422415      0.984834   1.000000   1.000000
   12        0.501895      1.030651   1.000000   1.000000
   13        0.586949      1.109852   1.000000   1.000000
   14        0.689864      1.277419   1.000000   1.000000
   15        0.832078      1.434239   1.000000   1.000000
   16        1.013769      1.622753   1.000000   1.000000
   17        1.259305      1.893653   1.000000   1.000000
   18        1.303885      1.993330   1.000000   1.000000
   19        1.494698      2.098281   1.000000   1.000000
   20        1.667773      2.320312   1.000000   0.999765
   21        1.755593      2.405912   1.000000   0.998607
   22        1.936929      2.588895   1.000000   0.999758
   23        2.042773      2.696073   1.000000   1.040336
   24        2.072731      2.787481   1.000000   1.024665
   25        2.212683      2.882998   0.999988   0.739936
   26        2.230169      2.895529   0.999979   0.679986
   27        2.264269      3.018681   0.999944   0.096777
   28        2.644722      3.244830   1.016554  -0.006150
   29        3.996589      4.415377   0.000000   0.000000
   30        5.936092      6.200234   0.000000   0.000000
   31        7.708810      7.882521   0.000000   0.000000
   32       10.002704     10.014761   0.000000   0.000000
   33       11.317767     11.329851   0.000000   0.000000
   34       11.676329     11.718500   0.000000   0.000000
   35       14.338548     14.418527   0.000000   0.000000
   36       14.742686     14.780833   0.000000   0.000000
 
  0.3333333E+00  0.1111111E+00  0.0000000E+00  0.1481481E+00
    1       -1.883928     -1.667421   1.000000   1.000000
    2       -1.618276     -1.380831   1.000000   1.000000
    3       -1.405980     -1.067166   1.000000   1.000000
    4       -1.057668     -0.650146   1.000000   1.000000
    5       -0.987690     -0.421876   1.000000   1.000000
    6       -0.762947     -0.239079   1.000000   1.000000
    7       -0.574010     -0.047449   1.000000   1.000000
    8       -0.231918      0.256689   1.000000   1.000000
    9        0.128029      0.597787   1.000000   1.000000
   10        0.405526      0.939514   1.000000   1.000000
   11        0.441824      1.024876   1.000000   1.000000
   12        0.582673      1.160794   1.000000   1.000000
   13        0.760750      1.371307   1.000000   1.000000
   14        0.930001      1.467643   1.000000   1.000000
   15        1.178333      1.730450   1.000000   1.000000
   16        1.327164      1.875528   1.000000   1.000000
   17        1.392465      1.939238   1.000000   1.000000
   18        1.629275      2.225023   1.000000   0.999982
   19        1.851776      2.554535   1.000000   0.995822
   20        1.922909      2.588536   1.000000   0.999694
   21        2.024137      2.668905   1.000000   1.027543
   22        2.126660      2.810189   0.999999   0.987685
   23        2.287344      3.027629   0.999897   0.069097
   24        2.346779      3.079088   0.999568  -0.031322
   25        2.409771      3.203018   0.998511  -0.022280
   26        3.117359      3.685083  -0.051429   0.000004
   27        3.389126      3.919531   0.003546   0.000000
   28        4.064753      4.424635   0.000000   0.000000
   29        5.610485      5.836516   0.000000   0.000000
   30        7.601815      7.766816   0.000000   0.000000
   31        9.919381     10.088209   0.000000   0.000000
   32       10.383597     10.578921   0.000000   0.000000
   33       11.050649     11.231762   0.000000   0.000000
   34       12.137414     12.263408   0.000000   0.000000
   35       12.959005     13.025155   0.000000   0.000000
   36       14.050719     13.792095   0.000000   0.000000
 
  0.4444444E+00  0.1111111E+00  0.0000000E+00  0.7407407E-01
    1       -1.611557     -1.204806   1.000000   1.000000
    2       -1.523218     -1.160622   1.000000   1.000000
    3       -1.252246     -0.882400   1.000000   1.000000
    4       -1.125618     -0.621030   1.000000   1.000000
    5       -1.073119     -0.553029   1.000000   1.000000
    6       -0.826040     -0.403675   1.000000   1.000000
    7       -0.755203     -0.192644   1.000000   1.000000
    8       -0.249574      0.207824   1.000000   1.000000
    9        0.152220      0.640802   1.000000   1.000000
   10        0.373984      0.963026   1.000000   1.000000
   11        0.607055      1.179376   1.000000   1.000000
   12        0.648232      1.215465   1.000000   1.000000
   13        0.735891      1.266499   1.000000   1.000000
   14        1.126865      1.728199   1.000000   1.000000
   15        1.203992      1.763863   1.000000   1.000000
   16        1.630076      2.204596   1.000000   0.999990
   17        1.682097      2.253632   1.000000   0.999959
   18        1.849799      2.454133   1.000000   0.997108
   19        2.022416      2.663540   1.000000   1.024993
   20        2.212707      2.830010   0.999988   0.939752
   21        2.226586      2.979867   0.999981   0.250248
   22        2.259135      3.012186   0.999952   0.118779
   23        2.297151      3.041310   0.999867   0.032762
   24        2.359341      3.108228   0.999433  -0.049836
   25        2.445450      3.229996   0.997420  -0.011061
   26        4.448655      4.729273   0.000000   0.000000
   27        5.183257      5.464657   0.000000   0.000000
   28        5.765630      6.051772   0.000000   0.000000
   29        6.164471      6.394472   0.000000   0.000000
   30        6.316684      6.467519   0.000000   0.000000
   31        9.185092      9.525414   0.000000   0.000000
   32        9.882366     10.133917   0.000000   0.000000
   33       10.433330     10.623015   0.000000   0.000000
   34       11.461803     11.616457   0.000000   0.000000
   35       12.874139     13.009185   0.000000   0.000000
   36       13.563910     13.706262   0.000000   0.000000
 
  0.2222222E+00  0.2222222E+00  0.0000000E+00  0.7407407E-01
    1       -1.825266     -1.712102   1.000000   1.000000
    2       -1.501833     -1.302663   1.000000   1.000000
    3       -1.156992     -0.826510   1.000000   1.000000
    4       -0.929670     -0.564672   1.000000   1.000000
    5       -0.578199     -0.049954   1.000000   1.000000
    6       -0.536062     -0.005553   1.000000   1.000000
    7       -0.354110      0.203593   1.000000   1.000000
    8       -0.252478      0.299145   1.000000   1.000000
    9       -0.038954      0.512935   1.000000   1.000000
   10        0.113220      0.659386   1.000000   1.000000
   11        0.328322      0.903261   1.000000   1.000000
   12        0.343865      0.909681   1.000000   1.000000
   13        0.533653      1.030574   1.000000   1.000000
   14        0.586633      1.078841   1.000000   1.000000
   15        0.897183      1.467853   1.000000   1.000000
   16        0.918230      1.493648   1.000000   1.000000
   17        1.191461      1.803896   1.000000   1.000000
   18        1.450361      2.071539   1.000000   1.000000
   19        1.506853      2.203256   1.000000   0.999991
   20        1.785590      2.414062   1.000000   0.998399
   21        1.837829      2.453185   1.000000   0.997143
   22        2.010100      2.720526   1.000000   1.049156
   23        2.330069      3.057041   0.999704  -0.000155
   24        2.341485      3.093647   0.999616  -0.043410
   25        2.397774      3.192864   0.998794  -0.027047
   26        3.258039      3.850564  -0.002618   0.000000
   27        3.461805      4.011785   0.001231   0.000000
   28        4.169655      4.586128   0.000000   0.000000
   29        5.666708      5.949414   0.000000   0.000000
   30        7.714074      7.906580   0.000000   0.000000
   31        9.834856      9.974155   0.000000   0.000000
   32       11.660374     11.698792   0.000000   0.000000
   33       12.694647     12.800534   0.000000   0.000000
   34       12.878286     12.971573   0.000000   0.000000
   35       13.489963     13.552943   0.000000   0.000000
   36       13.538070     13.621984   0.000000   0.000000
 
  0.3333333E+00  0.2222222E+00  0.0000000E+00  0.1481481E+00
    1       -1.153090     -0.750880   1.000000   1.000000
    2       -1.120370     -0.731532   1.000000   1.000000
    3       -0.892313     -0.540848   1.000000   1.000000
    4       -0.797626     -0.346964   1.000000   1.000000
    5       -0.764359     -0.248145   1.000000   1.000000
    6       -0.524517     -0.048238   1.000000   1.000000
    7       -0.421780      0.090997   1.000000   1.000000
    8       -0.173199      0.274379   1.000000   1.000000
    9       -0.071295      0.443659   1.000000   1.000000
   10       -0.021549      0.568172   1.000000   1.000000
   11        0.317161      0.874215   1.000000   1.000000
   12        0.422081      1.015187   1.000000   1.000000
   13        0.758700      1.319069   1.000000   1.000000
   14        0.823383      1.357727   1.000000   1.000000
   15        0.980991      1.517202   1.000000   1.000000
   16        1.022485      1.582913   1.000000   1.000000
   17        1.197528      1.783240   1.000000   1.000000
   18        1.513156      2.087450   1.000000   1.000000
   19        1.734911      2.345917   1.000000   0.999576
   20        1.850946      2.457249   1.000000   0.996993
   21        1.912991      2.665549   1.000000   1.025943
   22        2.111185      2.871879   1.000000   0.789699
   23        2.258082      3.013204   0.999953   0.115227
   24        2.321812      3.084994   0.999756  -0.036973
   25        2.395112      3.187236   0.998851  -0.029748
   26        5.144585      5.536617   0.000000   0.000000
   27        5.633112      5.972273   0.000000   0.000000
   28        6.523371      6.775283   0.000000   0.000000
   29        7.736502      7.925711   0.000000   0.000000
   30        8.572697      8.772036   0.000000   0.000000
   31        9.801973     10.058831   0.000000   0.000000
   32       10.634308     10.826878   0.000000   0.000000
   33       11.163893     11.335532   0.000000   0.000000
   34       11.903788     12.058308   0.000000   0.000000
   35       12.448890     12.597879   0.000000   0.000000
   36       13.080051     13.213222   0.000000   0.000000
 
  0.3333333E+00  0.3333333E+00  0.0000000E+00  0.2469136E-01
    1       -0.741049     -0.217240   1.000000   1.000000
    2       -0.680302     -0.217149   1.000000   1.000000
    3       -0.680197     -0.183551   1.000000   1.000000
    4       -0.567820     -0.152201   1.000000   1.000000
    5       -0.567784     -0.152037   1.000000   1.000000
    6       -0.531658     -0.139071   1.000000   1.000000
    7       -0.517128     -0.137888   1.000000   1.000000
    8       -0.310767      0.248791   1.000000   1.000000
    9       -0.310522      0.249044   1.000000   1.000000
   10        0.120336      0.728586   1.000000   1.000000
   11        0.281743      0.824639   1.000000   1.000000
   12        0.281957      0.824855   1.000000   1.000000
   13        0.684209      1.280752   1.000000   1.000000
   14        0.700410      1.294609   1.000000   1.000000
   15        0.832510      1.343624   1.000000   1.000000
   16        0.832880      1.343991   1.000000   1.000000
   17        1.435873      1.997957   1.000000   1.000000
   18        1.435977      1.998062   1.000000   1.000000
   19        1.590804      2.197690   1.000000   0.999992
   20        1.693454      2.288929   1.000000   0.999892
   21        2.081294      2.858450   1.000000   0.844678
   22        2.081464      2.858586   1.000000   0.844149
   23        2.142463      2.939506   0.999999   0.451735
   24        2.223148      2.989092   0.999983   0.209273
   25        2.223245      2.989154   0.999983   0.209004
   26        7.939567      8.170876   0.000000   0.000000
   27        7.939676      8.170985   0.000000   0.000000
   28        8.149973      8.391120   0.000000   0.000000
   29        8.302401      8.515003   0.000000   0.000000
   30        8.999506      9.212255   0.000000   0.000000
   31        8.999841      9.212592   0.000000   0.000000
   32       10.089063     10.310872   0.000000   0.000000
   33       10.089181     10.310992   0.000000   0.000000
   34       10.660473     10.858354   0.000000   0.000000
   35       11.165857     11.331164   0.000000   0.000000
   36       12.603477     12.773396   0.000000   0.000000
